 Entering Gaussian System, Link 0=g16
 AtFile(1): /scratch3/usr/yutong/ma/ma-TZVP.txt
            -H     0
            S   3   1.00
                 34.0613410              0.60251978E-02
                  5.1235746              0.45021094E-01
                  1.1646626              0.20189726
            S   1   1.00
                  0.32723041             1.0000000
            S   1   1.00
                  0.10307241             1.0000000
            P   1   1.00
                  0.8000000              1.0000000
            ****
            -He     0
            S   3   1.00
                 98.078321616            0.75803064967E-02
                 14.764404247            0.54848620937E-01
                  3.3185831473           0.22074382186
            S   1   1.00
                  0.87413869551          1.0000000
            S   1   1.00
                  0.24459897208          1.0000000
            P   1   1.00
                  1.0000000              1.0000000
            S   1   1.00
              0.815329906933E-01   1.000
            P   1   1.00
              0.333333333333E+00   1.000
            ****
            -Li     0
            S   6   1.00
               6269.2628010              0.20540968826E-03
                940.31612431             0.15916554089E-02
                214.22107528             0.82869829707E-02
                 60.759840184            0.33856374249E-01
                 19.915152032            0.11103225876
                  7.3171509797           0.27449383329
            S   2   1.00
                  2.9724674216           0.23792456411
                  1.2639852314           0.30765411924
            S   1   1.00
                  0.51427489953          1.0000000
            S   1   1.00
                  0.77030885901E-01            1.0000000
            S   1   1.00
                  0.28938896433E-01            1.0000000
            P   1   1.00
                  0.4000000              1.0000000
            P   1   1.00
                  0.0600000              1.0000000
            P   1   1.00
                  3.3270000              1.0000000
            S   1   1.00
              0.964629881100E-02   1.000
            P   1   1.00
              0.200000000000E-01   1.000
            ****
            -Be     0
            S   6   1.00
               4700.2365626              0.23584389316E-03
                704.82845622             0.18243791019E-02
                160.43110478             0.93966148224E-02
                 45.425347336            0.36908924159E-01
                 14.798334125            0.10897561281
                  5.3512452537           0.21694284551
            S   2   1.00
                  2.1542044819           0.44695408857
                  0.93363744400          0.20866985771
            S   1   1.00
                  0.18791432989          1.0000000
            S   1   1.00
                  0.74648267947E-01            1.0000000
            S   1   1.00
                  0.32650484598E-01            1.0000000
            P   2   1.00
                  0.71695694366         -0.16877854032
                  0.19541932860         -0.51403419628
            P   1   1.00
                  3.6316917145           1.0000000
            P   1   1.00
                  0.60515465890E-01            1.0000000
            D   1   1.00
                  0.1800000              1.0000000
            S   1   1.00
              0.108834948660E-01   1.000
            P   1   1.00
              0.201718219633E-01   1.000
            ****
            -B     0
            S   6   1.00
               8564.8660687              0.22837198155E-03
               1284.1516263              0.17682576447E-02
                292.27871604             0.91407080516E-02
                 82.775469176            0.36342638989E-01
                 27.017939269            0.11063458441
                  9.8149619660           0.23367344321
            S   2   1.00
                  3.9318559059           0.41818777978
                  1.6595599712           0.22325473798
            S   1   1.00
                  0.35762965239          1.0000000
            S   1   1.00
                  0.14246277496          1.0000000
            S   1   1.00
                  0.60560594768E-01            1.0000000
            P   4   1.00
                 22.453875803            0.50265575179E-02
                  5.1045058330           0.32801738965E-01
                  1.4986081344           0.13151230768
                  0.50927831315          0.33197167769
            P   1   1.00
                  0.18147077798          1.0000000
            P   1   1.00
                  0.64621893904E-01            1.0000000
            D   1   1.00
                  0.66100000             1.0000000
            D   1   1.00
                  0.19900000             1.0000000
            F   1   1.00
                  0.49000000             1.0000000
            S   1   1.00
              0.201868649227E-01   1.000
            P   1   1.00
              0.215406313013E-01   1.000
            ****
            -C     0
            S   6   1.00
              13575.3496820              0.22245814352E-03
               2035.2333680              0.17232738252E-02
                463.22562359             0.89255715314E-02
                131.20019598             0.35727984502E-01
                 42.853015891            0.11076259931
                 15.584185766            0.24295627626
            S   2   1.00
                  6.2067138508           0.41440263448
                  2.5764896527           0.23744968655
            S   1   1.00
                  0.57696339419          1.0000000
            S   1   1.00
                  0.22972831358          1.0000000
            S   1   1.00
                  0.95164440028E-01            1.0000000
            P   4   1.00
                 34.697232244            0.53333657805E-02
                  7.9582622826           0.35864109092E-01
                  2.3780826883           0.14215873329
                  0.81433208183          0.34270471845
            P   1   1.00
                  0.28887547253          1.0000000
            P   1   1.00
                  0.10056823671          1.0000000
            D   1   1.00
                  1.09700000             1.0000000
            D   1   1.00
                  0.31800000             1.0000000
            F   1   1.00
                  0.76100000             1.0000000
            S   1   1.00
              0.317214800093E-01   1.000
            P   1   1.00
              0.335227455700E-01   1.000
            ****
            -N     0
            S   6   1.00
              19730.8006470              0.21887984991E-03
               2957.8958745              0.16960708803E-02
                673.22133595             0.87954603538E-02
                190.68249494             0.35359382605E-01
                 62.295441898            0.11095789217
                 22.654161182            0.24982972552
            S   2   1.00
                  8.9791477428           0.40623896148
                  3.6863002370           0.24338217176
            S   1   1.00
                  0.84660076805          1.0000000
            S   1   1.00
                  0.33647133771          1.0000000
            S   1   1.00
                  0.13647653675          1.0000000
            P   4   1.00
                 49.200380510            0.55552416751E-02
                 11.346790537            0.38052379723E-01
                  3.4273972411           0.14953671029
                  1.1785525134           0.34949305230
            P   1   1.00
                  0.41642204972          1.0000000
            P   1   1.00
                  0.14260826011          1.0000000
            D   1   1.00
                  1.65400000             1.0000000
            D   1   1.00
                  0.46900000             1.0000000
            F   1   1.00
                  1.09300000             1.0000000
            S   1   1.00
              0.454921789167E-01   1.000
            P   1   1.00
              0.475360867033E-01   1.000
            ****
            -O     0
            S   6   1.00
              27032.3826310              0.21726302465E-03
               4052.3871392              0.16838662199E-02
                922.32722710             0.87395616265E-02
                261.24070989             0.35239968808E-01
                 85.354641351            0.11153519115
                 31.035035245            0.25588953961
            S   2   1.00
                 12.260860728            0.39768730901
                  4.9987076005           0.24627849430
            S   1   1.00
                  1.1703108158           1.0000000
            S   1   1.00
                  0.46474740994          1.0000000
            S   1   1.00
                  0.18504536357          1.0000000
            P   4   1.00
                 63.274954801            0.60685103418E-02
                 14.627049379            0.41912575824E-01
                  4.4501223456           0.16153841088
                  1.5275799647           0.35706951311
            P   1   1.00
                  0.52935117943          1.0000000
            P   1   1.00
                  0.17478421270          1.0000000
            D   1   1.00
                  2.31400000             1.0000000
            D   1   1.00
                  0.64500000             1.0000000
            F   1   1.00
                  1.42800000             1.0000000
            S   1   1.00
              0.616817878567E-01   1.000
            P   1   1.00
              0.582614042333E-01   1.000
            ****
            -F     0
            S   6   1.00
              35479.1004410              0.21545014888E-03
               5318.4728983              0.16700686527E-02
               1210.4810975              0.86733211476E-02
                342.85518140             0.35049933175E-01
                112.01943181             0.11165320133
                 40.714740248            0.25988506647
            S   2   1.00
                 16.039678111            0.39422966880
                  6.5038186740           0.24998238551
            S   1   1.00
                  1.5440477509           1.0000000
            S   1   1.00
                  0.61223452862          1.0000000
            S   1   1.00
                  0.24027979698          1.0000000
            P   4   1.00
                 80.233900483            0.63685999134E-02
                 18.594010743            0.44303143530E-01
                  5.6867902653           0.16867248708
                  1.9511006294           0.36166346255
            P   1   1.00
                  0.66970211298          1.0000000
            P   1   1.00
                  0.21651300410          1.0000000
            D   1   1.00
                  3.10700000             1.0000000
            D   1   1.00
                  0.85500000             1.0000000
            F   1   1.00
                  1.91700000             1.0000000
            S   1   1.00
              0.800932656600E-01   1.000
            P   1   1.00
              0.721710013667E-01   1.000
            ****
            -Ne     0
            S   6   1.00
              45069.4640220              0.21687155182E-03
               6755.9768656              0.16812736757E-02
               1537.6502864              0.87356062782E-02
                435.51697667             0.35361266922E-01
                142.28655638             0.11321521454
                 51.692153804            0.26654653104
            S   2   1.00
                 20.315870490            0.39631959951
                  8.2021942646           0.25582811251
            S   1   1.00
                  1.9681276278           1.0000000
            S   1   1.00
                  0.77904756001          1.0000000
            S   1   1.00
                  0.30229502043          1.0000000
            P   4   1.00
                 99.782996032            0.65569234163E-02
                 23.176124101            0.45888009138E-01
                  7.1163945872           0.17331287812
                  2.4418711435           0.36475267512
            P   1   1.00
                  0.83389605766          1.0000000
            P   1   1.00
                  0.26607311301          1.0000000
            D   1   1.00
                  4.01400000             1.0000000
            D   1   1.00
                  1.09600000             1.0000000
            F   1   1.00
                  2.54400000             1.0000000
            S   1   1.00
              0.100765006810E+00   1.000
            P   1   1.00
              0.886910376700E-01   1.000
            ****
            -Na     0
            S   7   1.00
              26041.1099270              0.61806342811E-03
               3906.1268548              0.47748604414E-02
                888.97454993             0.24471684829E-01
                251.45497961             0.94755394977E-01
                 81.650143512            0.26867496920
                 28.904158401            0.47925475440
                 10.625782932            0.33248591469
            S   3   1.00
                 53.769410179            0.19527731872E-01
                 16.308243025            0.92648010794E-01
                  2.3730384125          -0.39938670172
            S   2   1.00
                  0.95730772603          1.6428595391
                  0.40806460959          0.55692596966
            S   1   1.00
                  0.49967582329E-01            1.0000000
            S   1   1.00
                  0.19268616250E-01            1.0000000
            P   5   1.00
                138.07979989             0.57951891929E-02
                 32.232700393            0.41620846251E-01
                  9.9816075360           0.16281916885
                  3.4822033928           0.36011784647
                  1.2299134620           0.44858979889
            P   1   1.00
                  0.41743959423          1.0000000
            P   1   1.00
                  0.0300000              1.0000000
            P   1   1.00
                  0.0910000              1.0000000
            D   1   1.00
                  2.6090000              1.0000000
            D   1   1.00
                  0.4300000              1.0000000
            D   1   1.00
                  0.1000000              1.0000000
            S   1   1.00
              0.642287208333E-02   1.000
            P   1   1.00
              0.100000000000E-01   1.000
            ****
            -Mg     0
            S   7   1.00
              31438.3495550              0.60912311326E-03
               4715.5153354              0.47066196465E-02
               1073.1629247              0.24135820657E-01
                303.57238768             0.93628959834E-01
                 98.626251042            0.26646742093
                 34.943808417            0.47890929917
                 12.859785199            0.33698490286
            S   3   1.00
                 64.876913004            0.19180889307E-01
                 19.725520777            0.90913704392E-01
                  2.8951804339          -0.39563756125
            S   2   1.00
                  1.1960454710           1.6827603373
                  0.54329451156          0.52141091954
            S   1   1.00
                  0.10099104092          1.0000000
            S   1   1.00
                  0.36865728085E-01            1.0000000
            P   5   1.00
                179.87189612             0.53799549018E-02
                 42.120069376            0.39318014098E-01
                 13.120503032            0.15740129476
                  4.6257503609           0.35919094128
                  1.6695211016           0.45533379310
            P   1   1.00
                  0.58551012105          1.0000000
            P   1   1.00
                  0.18914796195          1.0000000
            P   1   1.00
                  0.53768755187E-01            1.0000000
            D   1   1.00
                  3.4440000              1.0000000
            D   1   1.00
                  0.2900000              1.0000000
            D   1   1.00
                  0.0700000              1.0000000
            S   1   1.00
              0.122885760283E-01   1.000
            P   1   1.00
              0.179229183957E-01   1.000
            ****
            -Al     0
            S   7   1.00
              37792.5507720              0.57047888709E-03
               5668.0682165              0.44093016538E-02
               1289.8582841              0.22630967411E-01
                364.86596028             0.88025644295E-01
                118.57631515             0.25223701612
                 42.024867605            0.45960547169
                 15.499501629            0.33277886014
            S   3   1.00
                 75.208026598            0.19250560190E-01
                 23.031408972            0.87906743952E-01
                  3.6348797649          -0.34246704535
            S   2   1.00
                  1.6065049957           1.5106266058
                  0.76103394581          0.58071016470
            S   1   1.00
                  0.16556708849          1.0000000
            S   1   1.00
                  0.60041577113E-01            1.0000000
            P   5   1.00
                452.52303192             0.23110812466E-02
                107.08195049             0.18568641823E-01
                 34.131021255            0.87216237035E-01
                 12.587037428            0.26902101523
                  4.9811919704           0.52128324272
            P   1   1.00
                  2.0070350900           1.0000000
            P   1   1.00
                  0.80083714374          1.0000000
            P   1   1.00
                  0.20178927472          1.0000000
            P   1   1.00
                  0.57895550392E-01            1.0000000
            D   2   1.00
                  1.57000000             0.20000000
                  0.333000000            1.00000000
            D   1   1.00
                  0.111000000            1.0000000
            F   1   1.00
                  0.244000000            1.0000000
            S   1   1.00
              0.200138590377E-01   1.000
            P   1   1.00
              0.192985167973E-01   1.000
            ****
            -Si     0
            S   7   1.00
              44773.3580780              0.55914765868E-03
               6717.1992104              0.43206040189E-02
               1528.8960325              0.22187096460E-01
                432.54746585             0.86489249116E-01
                140.61505226             0.24939889716
                 49.857636724            0.46017197366
                 18.434974885            0.34250236575
            S   3   1.00
                 86.533886111            0.21300063007E-01
                 26.624606846            0.94676139318E-01
                  4.4953057159          -0.32616264859
            S   2   1.00
                  2.1035045710           1.3980803850
                  1.0106094922           0.63865786699
            S   1   1.00
                  0.23701751489          1.0000000
            S   1   1.00
                  0.85703405362E-01            1.0000000
            P   5   1.00
                394.47503628             0.26285693959E-02
                 93.137683104            0.20556257749E-01
                 29.519608742            0.92070262801E-01
                 10.781663791            0.25565889739
                  4.1626574778           0.42111707185
            P   1   1.00
                  1.6247972989           1.0000000
            P   1   1.00
                  0.54306660493          1.0000000
            P   1   1.00
                  0.20582073956          1.0000000
            P   1   1.00
                  0.70053487306E-01            1.0000000
            D   2   1.00
                  2.30300000             0.20000000
                  0.476000000            1.00000000
            D   1   1.00
                  0.160000000            1.0000000
            F   1   1.00
                  0.336000000            1.0000000
            S   1   1.00
              0.285678017873E-01   1.000
            P   1   1.00
              0.233511624353E-01   1.000
            ****
            -P     0
            S   7   1.00
              52426.9992330              0.55207164100E-03
               7863.2660552              0.42678595308E-02
               1789.5227333              0.21931529186E-01
                506.27300165             0.85667168373E-01
                164.60698546             0.24840686605
                 58.391918722            0.46336753971
                 21.643663201            0.35350558156
            S   3   1.00
                 99.013837620            0.21895679958E-01
                 30.550439817            0.95650470295E-01
                  5.4537087661          -0.29454270186
            S   2   1.00
                  2.6503362563           1.3294381200
                  1.2726688867           0.66109396473
            S   1   1.00
                  0.31645005203          1.0000000
            S   1   1.00
                  0.11417466938          1.0000000
            P   5   1.00
                472.27219248             0.25710623052E-02
                111.58882756             0.20250297999E-01
                 35.445936418            0.91580716787E-01
                 12.990776875            0.25749454014
                  5.0486221658           0.42862899758
            P   1   1.00
                  1.9934049566           1.0000000
            P   1   1.00
                  0.66527284430          1.0000000
            P   1   1.00
                  0.25516832128          1.0000000
            P   1   1.00
                  0.90357762251E-01            1.0000000
            D   2   1.00
                  3.12000000             0.20000000
                  0.648000000            1.00000000
            D   1   1.00
                  0.218000000            1.0000000
            F   1   1.00
                  0.452000000            1.0000000
            S   1   1.00
              0.380582231267E-01   1.000
            P   1   1.00
              0.301192540837E-01   1.000
            ****
            -S     0
            S   7   1.00
              60700.9281040              0.54695944225E-03
               9102.6106854              0.42297224557E-02
               2071.4166009              0.21747824159E-01
                586.02476821             0.85100053589E-01
                190.55395021             0.24799128459
                 67.630384260            0.46703640406
                 25.127306905            0.36434587550
            S   3   1.00
                112.57463010             0.21670040240E-01
                 34.795554217            0.93602301760E-01
                  6.5115556215          -0.26068001422
            S   2   1.00
                  3.2399032261           1.2842089435
                  1.5477160881           0.66036416584
            S   1   1.00
                  0.40541030112          1.0000000
            S   1   1.00
                  0.14550651059          1.0000000
            P   5   1.00
                564.36716027             0.24796796317E-02
                133.42624379             0.19677930250E-01
                 42.468271189            0.89980008258E-01
                 15.616527580            0.25705880575
                  6.1093988469           0.43515167292
            P   1   1.00
                  2.4404160198           1.0000000
            P   1   1.00
                  0.83882201296          1.0000000
            P   1   1.00
                  0.31288746900          1.0000000
            P   1   1.00
                  0.10770109004          1.0000000
            D   2   1.00
                  3.75600000             0.20000000
                  0.812000000            1.00000000
            D   1   1.00
                  0.273000000            1.0000000
            F   1   1.00
                  0.557000000            1.0000000
            S   1   1.00
              0.485021701967E-01   1.000
            P   1   1.00
              0.359003633467E-01   1.000
            ****
            -Cl     0
            S   7   1.00
              69507.9909450              0.54314897497E-03
              10426.1568800              0.41990463961E-02
               2373.2334061              0.21592141679E-01
                671.56420071             0.84598850094E-01
                218.41999790             0.24757249724
                 77.572249714            0.47016930228
                 28.888815277            0.37436370716
            S   3   1.00
                127.10527185             0.25182166603E-01
                 39.339582961            0.10786112456
                  7.6740679989          -0.27408821574
            S   2   1.00
                  3.8745627630           1.3213875014
                  1.8385832573           0.68636955368
            S   1   1.00
                  0.50229057542          1.0000000
            S   1   1.00
                  0.17962723420          1.0000000
            P   5   1.00
                666.50423284             0.23632663836E-02
                157.64241690             0.18879300374E-01
                 50.262520978            0.87206341273E-01
                 18.536078105            0.25285612970
                  7.2940532777           0.43507154820
            P   1   1.00
                  2.9433248995           1.0000000
            P   1   1.00
                  1.0404970818           1.0000000
            P   1   1.00
                  0.38456415080          1.0000000
            P   1   1.00
                  0.13069642732          1.0000000
            D   2   1.00
                  4.61000000             0.20000000
                  1.01100000             1.00000000
            D   1   1.00
                  0.339000000            1.0000000
            F   1   1.00
                  0.706000000            1.0000000
            S   1   1.00
              0.598757447333E-01   1.000
            P   1   1.00
              0.435654757733E-01   1.000
            ****
            -Ar     0
            S   7   1.00
              79111.4229980              0.51029325002E-03
              11864.7460090              0.39463036981E-02
               2700.1642973              0.20307073910E-01
                763.95943485             0.79691825214E-01
                248.45150561             0.23420623836
                 88.283581000            0.44833849481
                 32.948607069            0.36408167400
            S   3   1.00
                142.55358000             0.26387407001E-01
                 44.163688009            0.11226433999
                  8.9524995000          -0.26178922001
            S   2   1.00
                  4.5546920941           1.3002484998
                  2.1444079001           0.67197237009
            S   1   1.00
                  0.60708777004          1.0000000
            S   1   1.00
                  0.21651431999          1.0000000
            P   5   1.00
                776.77541998             0.22028005003E-02
                183.80107018             0.17694180008E-01
                 58.694003175            0.82431293717E-01
                 21.701591695            0.24207278863
                  8.5821489635           0.42263558251
            P   1   1.00
                  3.4922679161           1.0000000
            P   1   1.00
                  1.2637426998           1.0000000
            P   1   1.00
                  0.46607870005          1.0000000
            P   1   1.00
                  0.15766003000          1.0000000
            D   2   1.00
                  5.55100000             0.20000000
                  1.23500000             1.00000000
            D   1   1.00
                  0.412000000            1.0000000
            F   1   1.00
                  0.890000000            1.0000000
            S   1   1.00
              0.721714399967E-01   1.000
            P   1   1.00
              0.525533433333E-01   1.000
            ****
            -K     0
            S   8   1.00
             153976.1832500              0.23662636107E-03
              23082.4976720              0.18342929137E-02
               5253.2344745              0.95310527769E-02
               1486.9550133              0.38638406980E-01
                484.06333726             0.12480768502
                173.56653980             0.29278861009
                 67.116381464            0.40633425860
                 26.339502054            0.20077215860
            S   4   1.00
                172.87693567            -0.24200960936E-01
                 53.058649063           -0.11553095040
                  7.9212753964           0.57455545175
                  3.2108880472           0.57023185107
            S   2   1.00
                  4.5662070895          -0.22615763466
                  0.70209907282          0.75528392045
            S   1   1.00
                  0.28258942635          1.0000000
            S   1   1.00
                  0.35805824617E-01            1.0000000
            S   1   1.00
                  0.15819213245E-01            1.0000000
            P   6   1.00
                728.18449873             0.26150689792E-02
                172.13265061             0.20673630835E-01
                 54.829847075            0.93205603870E-01
                 20.166266494            0.25436518210
                  7.8610728806           0.39131132810
                  3.1105213132           0.22481345943
            P   3   1.00
                 11.757337492           -0.25777289217E-01
                  1.5139617411           0.57359428604
                  0.58328591795          1.0798320002
            P   1   1.00
                  0.21570478076          1.0000000
            P   1   1.00
                  0.0417370              1.0000000
            D   1   1.00
                  0.9300000              1.0000000
            D   1   1.00
                  0.1800000              1.0000000
            D   1   1.00
                  0.0540000              1.0000000
            S   1   1.00
              0.527307108167E-02   1.000
            P   1   1.00
              0.139123333333E-01   1.000
            ****
            -Ca     0
            S   8   1.00
             172517.3268500              0.23317502546E-03
              25861.5192750              0.18076521980E-02
               5885.6618668              0.93943844255E-02
               1665.9730031              0.38108409009E-01
                542.36718148             0.12331203853
                194.57803492             0.29004470954
                 75.303597636            0.40587151157
                 29.574062589            0.20398410743
            S   4   1.00
                191.20074660            -0.24419759759E-01
                 58.840299883           -0.11547027448
                  8.9642540845           0.56356636717
                  3.6856960541           0.56709682704
            S   2   1.00
                  5.2464289726          -0.22825334325
                  0.84862621528          0.72625219172
            S   1   1.00
                  0.36743300538          1.0000000
            S   1   1.00
                  0.66821582613E-01            1.0000000
            S   1   1.00
                  0.26759730445E-01            1.0000000
            P   6   1.00
                836.97262058             0.25258346092E-02
                197.93040142             0.20076506686E-01
                 63.135558054            0.91302987366E-01
                 23.282687170            0.25247029915
                  9.1176444932           0.39426326344
                  3.6336120139           0.23011559492
            P   3   1.00
                 13.494163120           -0.26495021951E-01
                  1.8139259790           0.55088108210
                  0.71981826006          1.0280616620
            P   1   1.00
                  0.27629576992          1.0000000
            P   1   1.00
                  0.0749790              1.0000000
            P   1   1.00
                  0.0269270              1.0000000
            D   2   1.00
                  5.4979093879           0.73770011433E-01
                  1.3177128032           0.26052853169
            D   1   1.00
                  0.32188682649          1.0000000
            D   1   1.00
                  0.70528614919E-01            1.0000000
            S   1   1.00
              0.891991014833E-02   1.000
            P   1   1.00
              0.897566666667E-02   1.000
            ****
            -Sc     0
            S   8   1.00
             191612.9187400              0.23076475942E-03
              28723.8503630              0.17890329946E-02
               6537.0116490              0.92990401140E-02
               1850.3097171              0.37739438011E-01
                602.38855156             0.12227148359
                216.17324766             0.28814821470
                 83.712517880            0.40517543099
                 32.908707189            0.20566019623
            S   4   1.00
                211.34393234            -0.24527991462E-01
                 65.128920139           -0.11570158142
                 10.034311535            0.55995283317
                  4.1596884597           0.56087765073
            S   2   1.00
                  6.0009041613          -0.22840494325
                  0.98255784150          0.71948970378
            S   1   1.00
                  0.42483192773          1.0000000
            S   1   1.00
                  0.77185462096E-01            1.0000000
            S   1   1.00
                  0.30147219702E-01            1.0000000
            P   6   1.00
                947.34122823             0.24737208744E-02
                224.09699732             0.19742967060E-01
                 71.560334882            0.90357147549E-01
                 26.444824490            0.25201602503
                 10.393798285            0.39675535929
                  4.1606304559           0.23208624517
            P   3   1.00
                 15.565737135           -0.27129423974E-01
                  2.1121544865           0.55109256629
                  0.84184709021          1.0090635806
            P   1   1.00
                  0.32297542652          1.0000000
            P   1   1.00
                  0.0897480              1.0000000
            D   4   1.00
                 30.989390993            0.11902837431E-01
                  8.6905465069           0.67655856850E-01
                  2.9520256337           0.21332539722
                  1.0761910745           0.38391075578
            D   1   1.00
                  0.38338915095          1.0000000
            D   1   1.00
                  0.12534686113          1.0000000
            D   1   1.00
                  0.0410000              1.0000000
            F   1   1.00
                  0.3450000              1.0000000
            S   1   1.00
              0.100490732340E-01   1.000
            P   1   1.00
              0.299160000000E-01   1.000
            ****
            -Ti     0
            S   8   1.00
             211575.6902500              0.23318151011E-03
              31714.9450580              0.18079690851E-02
               7217.5476543              0.93984311352E-02
               2042.9394247              0.38156853618E-01
                665.12896208             0.12374757197
                238.74942264             0.29208551143
                 92.508691001            0.41226800855
                 36.403919209            0.21090534061
            S   4   1.00
                232.72624607            -0.24920140738E-01
                 71.791209711           -0.11746490087
                 11.158534615            0.56503342318
                  4.6548135416           0.56211101812
            S   2   1.00
                  6.8034629174          -0.23011425503
                  1.1201076403           0.72103186735
            S   1   1.00
                  0.48080118839          1.0000000
            S   1   1.00
                  0.85157274977E-01            1.0000000
            S   1   1.00
                  0.32657477046E-01            1.0000000
            P   6   1.00
               1063.1474732              0.24690839320E-02
                251.56507061             0.19773345523E-01
                 80.408554854            0.90987976672E-01
                 29.768193269            0.25559900413
                 11.736830556            0.40489386764
                  4.7142375230           0.23693402558
            P   3   1.00
                 17.796803704           -0.27878639615E-01
                  2.4272698680           0.55672914668
                  0.96823445537          1.0055447350
            P   1   1.00
                  0.37056694165          1.0000000
            P   1   1.00
                  0.1015610              1.0000000
            D   4   1.00
                 37.713384723            0.11513835092E-01
                 10.692931184            0.67246343996E-01
                  3.6728446990           0.21484207775
                  1.3588590303           0.38890892779
            D   1   1.00
                  0.49213295253          1.0000000
            D   1   1.00
                  0.16330520653          1.0000000
            D   1   1.00
                  0.0540000              1.0000000
            F   1   1.00
                  0.5620000              1.0000000
            S   1   1.00
              0.108858256820E-01   1.000
            P   1   1.00
              0.338536666667E-01   1.000
            ****
            -V     0
            S   8   1.00
             232340.6505800              0.23072410092E-03
              34828.8411700              0.17888178962E-02
               7926.5448691              0.92992490131E-02
               2243.7733046              0.37761463347E-01
                730.59322944             0.12255909662
                262.32219631             0.28963508811
                101.70403805             0.41004702955
                 40.064784617            0.21113610858
            S   4   1.00
                255.24014968            -0.24458116338E-01
                 78.804646961           -0.11527205366
                 12.340598946            0.55174749453
                  5.1742019219           0.54504528489
            S   2   1.00
                  7.6513894469          -0.22967638286
                  1.2639759898           0.71683769077
            S   1   1.00
                  0.53861761721          1.0000000
            S   1   1.00
                  0.92719296124E-01            1.0000000
            S   1   1.00
                  0.34998055176E-01            1.0000000
            P   6   1.00
               1184.2369151              0.24449826729E-02
                280.23075192             0.19643454466E-01
                 89.643627137            0.90796949190E-01
                 33.242411253            0.25650768222
                 13.144514452            0.40815393750
                  5.2948534140           0.23860378268
            P   3   1.00
                 20.175586851           -0.28241489023E-01
                  2.7605865197           0.55574635619
                  1.1008900902           0.99319919270
            P   1   1.00
                  0.42013310739          1.0000000
            P   1   1.00
                  0.1112480              1.0000000
            D   4   1.00
                 43.861134864            0.11487174238E-01
                 12.516021891            0.68247153977E-01
                  4.3313854957           0.21837784195
                  1.6138855773           0.39245212296
            D   1   1.00
                  0.58749573961          1.0000000
            D   1   1.00
                  0.19515723011          1.0000000
            D   1   1.00
                  0.0650000              1.0000000
            F   1   1.00
                  0.8310000              1.0000000
            S   1   1.00
              0.116660183920E-01   1.000
            P   1   1.00
              0.370826666667E-01   1.000
            ****
            -Cr     0
            S   8   1.00
             254477.8070400              0.23386945693E-03
              38131.7970540              0.18142601800E-02
               8675.2930607              0.94363925721E-02
               2455.0099848              0.38343639367E-01
                799.16217787             0.12459194837
                286.90021489             0.29489696029
                111.25413232             0.41846149607
                 43.864152636            0.21633763420
            S   4   1.00
                279.32669173            -0.23450908111E-01
                 86.274732376           -0.11080370027
                 13.555756113            0.53028965842
                  5.6978112751           0.51603516947
            S   2   1.00
                  8.5636582615          -0.38109545675
                  1.3988296768           1.1991591436
            S   1   1.00
                  0.57288171116          1.0000000
            S   1   1.00
                  0.90096171317E-01            1.0000000
            S   1   1.00
                  0.34125885135E-01            1.0000000
            P   6   1.00
               1306.4398864              0.24277326185E-02
                309.25311441             0.19544041017E-01
                 98.996273963            0.90651794553E-01
                 36.756916451            0.25699279154
                 14.566657077            0.40935504891
                  5.8739937432           0.23729388849
            P   3   1.00
                 22.890999695           -0.28166026613E-01
                  3.0855001822           0.56034120148
                  1.2132329118           0.98119019650
            P   1   1.00
                  0.44931680699          1.0000000
            P   1   1.00
                  0.1206750              1.0000000
            D   4   1.00
                 43.720074476            0.13622964026E-01
                 12.391242652            0.78935180133E-01
                  4.2639442006           0.23833840000
                  1.5525221790           0.39526851122
            D   1   1.00
                  0.53761929485          1.0000000
            D   1   1.00
                  0.16493173074          1.0000000
            D   1   1.00
                  0.0510000              1.0000000
            F   1   1.00
                  1.1470000              1.0000000
            S   1   1.00
              0.113752950450E-01   1.000
            P   1   1.00
              0.402250000000E-01   1.000
            ****
            -Mn     0
            S   8   1.00
             277185.0015300              0.22838385133E-03
              41550.7698900              0.17707650375E-02
               9455.9700152              0.92077209994E-02
               2676.5206482              0.37415971825E-01
                871.46687530             0.12164861426
                312.98306420             0.28824392499
                121.44454051             0.41041600847
                 47.922598829            0.21372375145
            S   4   1.00
                303.66723163            -0.24589926140E-01
                 93.881403187           -0.11602608038
                 14.879421214            0.55112059677
                  6.2865200745           0.53707560756
            S   2   1.00
                  9.4858591337          -0.22889262695
                  1.5698706158           0.71196169587
            S   1   1.00
                  0.65903213608          1.0000000
            S   1   1.00
                  0.10686292371          1.0000000
            S   1   1.00
                  0.39267435433E-01            1.0000000
            P   6   1.00
               1444.7978182              0.23994136455E-02
                342.06551197             0.19369286864E-01
                109.58400891             0.90236108988E-01
                 40.747988173            0.25745467851
                 16.188626566            0.41272351958
                  6.5484505964           0.24087700007
            P   3   1.00
                 25.357086437           -0.28707174058E-01
                  3.4830168782           0.55208100712
                  1.3858800906           0.97226901379
            P   1   1.00
                  0.52555094893          1.0000000
            P   1   1.00
                  0.1276500              1.0000000
            D   4   1.00
                 56.563189119            0.11543245294532D-01
                 16.278734711            0.70299845987196D-01
                  5.6964273914           0.22450770821295
                  2.1411147942           0.39703065434226
            D   1   1.00
                  0.78291801938          1.0000000
            D   1   1.00
                  0.25952311214          1.0000000
            D   1   1.00
                  0.0860000              1.0000000
            F   1   1.00
                  1.3260000              1.0000000
            S   1   1.00
              0.130891451443E-01   1.000
            P   1   1.00
              0.425500000000E-01   1.000
            ****
            -Fe     0
            S   8   1.00
             300784.8463700              0.22806273096E-03
              45088.9705570              0.17681788761E-02
              10262.5163170              0.91927083490E-02
               2905.2897293              0.37355495807E-01
                946.11487137             0.12151108426
                339.87832894             0.28818881468
                131.94425588             0.41126612677
                 52.111494077            0.21518583573
            S   4   1.00
                329.48839267            -0.24745216477E-01
                101.92332739            -0.11683089050
                 16.240462745            0.55293621136
                  6.8840675801           0.53601640182
            S   2   1.00
                 10.470693782           -0.22912708577
                  1.7360039648           0.71159319984
            S   1   1.00
                  0.72577288979          1.0000000
            S   1   1.00
                  0.11595528203          1.0000000
            S   1   1.00
                  0.41968227746E-01            1.0000000
            P   6   1.00
               1585.3959970              0.23793960179E-02
                375.38006499             0.19253154755E-01
                120.31816501             0.90021836536E-01
                 44.788749031            0.25798172356
                 17.829278584            0.41492649744
                  7.2247153786           0.24207474784
            P   3   1.00
                 28.143219756           -0.29041755152E-01
                  3.8743241412           0.55312260343
                  1.5410752281           0.96771136842
            P   1   1.00
                  0.58285615250          1.0000000
            P   1   1.00
                  0.1349150              1.0000000
            D   4   1.00
                 61.996675034            0.11971972255E-01
                 17.873732552            0.73210135410E-01
                  6.2744782934           0.23103094314
                  2.3552337175           0.39910706494
            D   1   1.00
                  0.85432239901          1.0000000
            D   1   1.00
                  0.27869254413          1.0000000
            D   1   1.00
                  0.0910000              1.0000000
            F   1   1.00
                  1.5980000              1.0000000
            S   1   1.00
              0.139894092487E-01   1.000
            P   1   1.00
              0.449716666667E-01   1.000
            ****
            -Co     0
            S   8   1.00
             325817.0155300              0.22568462484E-03
              48839.6364530              0.17499397533E-02
              11114.9373070              0.91003134097E-02
               3146.1603642              0.36996256837E-01
               1024.4378465              0.12044269621
                368.02508816             0.28598731649
                142.91229205             0.40908312004
                 56.482649209            0.21500145739
            S   4   1.00
                356.40298318            -0.24767059678E-01
                110.31165215            -0.11702139134
                 17.659634834            0.55215522200
                  7.5059030479           0.53246877060
            S   2   1.00
                 11.501807176           -0.22942470077
                  1.9081994606           0.71180933514
            S   1   1.00
                  0.79396696891          1.0000000
            S   1   1.00
                  0.12444448829          1.0000000
            S   1   1.00
                  0.44444645379E-01            1.0000000
            P   6   1.00
               1731.1369144              0.23905767685E-02
                409.91750438             0.19382999967E-01
                131.45648578             0.90905448509E-01
                 48.987439714            0.26146681577
                 19.537078992            0.42157264570
                  7.9287281634           0.24571813557
            P   3   1.00
                 31.076017584           -0.29438069973E-01
                  4.2835180697           0.55615568168
                  1.7022921563           0.96772195064
            P   1   1.00
                  0.64202908602          1.0000000
            P   1   1.00
                  0.1413080              1.0000000
            D   4   1.00
                 68.140745239            0.11983845360E-01
                 19.685241019            0.73688540475E-01
                  6.9322128825           0.23085496779
                  2.6025125694           0.39281059225
            D   1   1.00
                  0.94016837302          1.0000000
            D   1   1.00
                  0.30381457794          1.0000000
            D   1   1.00
                  0.0980000              1.0000000
            F   1   1.00
                  1.9030000              1.0000000
            S   1   1.00
              0.148148817930E-01   1.000
            P   1   1.00
              0.471026666667E-01   1.000
            ****
            -Ni     0
            S   8   1.00
             351535.7293500              0.22529386884E-03
              52695.8092830              0.17468616223E-02
              11992.4682930              0.90849992136E-02
               3394.5776689              0.36940748447E-01
               1105.3594585              0.12032819950
                397.14677769             0.28596715057
                154.27542974             0.40983020196
                 61.018723780            0.21620642851
            S   4   1.00
                384.45559739            -0.24651279268E-01
                119.04879199            -0.11658505277
                 19.137012223            0.54864126676
                  8.1526718562           0.52640051122
            S   2   1.00
                 12.579408642           -0.22797884293
                  2.0870866081           0.70703738215
            S   1   1.00
                  0.86432568555          1.0000000
            S   1   1.00
                  0.13283169217          1.0000000
            S   1   1.00
                  0.46845327726E-01            1.0000000
            P   6   1.00
               1883.0907486              0.23748258443E-02
                445.95155320             0.19289457172E-01
                143.08430815             0.90718211507E-01
                 53.372920722            0.26181414117
                 21.321919357            0.42309149832
                  8.6643561994           0.24641686015
            P   3   1.00
                 34.144255211           -0.29677129163E-01
                  4.7122455921           0.55616824096
                  1.8709231845           0.96357766460
            P   1   1.00
                  0.70370016267          1.0000000
            P   1   1.00
                  0.1465880              1.0000000
            D   4   1.00
                 74.591603465            0.12077454672E-01
                 21.590632752            0.74637262154E-01
                  7.6246142580           0.23236775502
                  2.8632206762           0.39042651680
            D   1   1.00
                  1.0311063388           1.0000000
            D   1   1.00
                  0.33060760691          1.0000000
            D   1   1.00
                  0.1060000              1.0000000
            F   1   1.00
                  2.1740000              1.0000000
            S   1   1.00
              0.156151092420E-01   1.000
            P   1   1.00
              0.488626666667E-01   1.000
            ****
            -Cu     0
            S   8   1.00
             377518.7992300              0.22811766128E-03
              56589.9843110              0.17688035931E-02
              12878.7117060              0.91993460227E-02
               3645.3752143              0.37411016434E-01
               1187.0072945              0.12189873737
                426.46421902             0.28983900714
                165.70660164             0.41531872174
                 65.598942707            0.21905799287
            S   4   1.00
                414.41265811            -0.24682525053E-01
                128.32056039            -0.11716827406
                 20.622089750            0.55301315941
                  8.7821226045           0.52242718609
            S   2   1.00
                 13.741372006           -0.22736061821
                  2.2431246833           0.71761210873
            S   1   1.00
                  0.89370549079          1.0000000
            S   1   1.00
                  0.10836699534          1.0000000
            S   1   1.00
                  0.38806178058E-01            1.0000000
            P   6   1.00
               2034.7596692              0.23524822298E-02
                481.90468106             0.19134070751E-01
                154.67482963             0.90171105278E-01
                 57.740576969            0.26063284735
                 23.099052811            0.42093485770
                  9.3882478591           0.24344615121
            P   3   1.00
                 37.596171210           -0.28991094530E-01
                  5.1240690810           0.54919083831
                  2.0119996085           0.93793330488
            P   1   1.00
                  0.73860686002          1.0000000
            P   1   1.00
                  0.1550650              1.0000000
            D   4   1.00
                 74.129460637            0.14363216676E-01
                 21.359842587            0.86628177096E-01
                  7.4995240537           0.25631430541
                  2.7601394169           0.40374062368
            D   1   1.00
                  0.95362061236          1.0000000
            D   1   1.00
                  0.28420862520          1.0000000
            D   1   1.00
                  0.0850000              1.0000000
            F   1   1.00
                  2.2330000              1.0000000
            S   1   1.00
              0.129353926860E-01   1.000
            P   1   1.00
              0.516883333333E-01   1.000
            ****
            -Zn     0
            S   8   1.00
             405924.3102800              0.22442017483E-03
              60846.9557350              0.17402086626E-02
              13847.3430920              0.90513339565E-02
               3919.6158551              0.36817341445E-01
               1276.3594167              0.12004850256
                458.67254435             0.28576057621
                178.28725246             0.41087462062
                 70.612192837            0.21816962456
            S   4   1.00
                443.88077950            -0.24934274984E-01
                137.55875267            -0.11817955766
                 22.268083479            0.55367318468
                  9.5217310606           0.52628934936
            S   2   1.00
                 14.874114065           -0.22929955254
                  2.4647517612           0.71135484742
            S   1   1.00
                  1.0113272238           1.0000000
            S   1   1.00
                  0.14919852089          1.0000000
            S   1   1.00
                  0.51441872981E-01            1.0000000
            P   6   1.00
               2205.3508534              0.23356240448E-02
                522.35300699             0.19031022634E-01
                167.73055542             0.89955758675E-01
                 62.670045373            0.26113248631
                 25.109749456            0.42348448173
                 10.225142681            0.24618926885
            P   3   1.00
                 40.713442521           -0.30029667592E-01
                  5.6247090696           0.55575254864
                  2.2279949116           0.95581013442
            P   1   1.00
                  0.83354741691          1.0000000
            P   1   1.00
                  0.1624550              1.0000000
            P   1   1.00
                  0.0477690              1.0000000
            D   4   1.00
                 88.554315311            0.12728170015E-01
                 25.721525557            0.79394499843E-01
                  9.1278367624           0.24491506805
                  3.4312364064           0.40390526479
            D   1   1.00
                  1.2308920645           1.0000000
            D   1   1.00
                  0.39031845112          1.0000000
            D   1   1.00
                  0.1240000              1.0000000
            F   1   1.00
                  2.6140000              1.0000000
            S   1   1.00
              0.171472909937E-01   1.000
            P   1   1.00
              0.159230000000E-01   1.000
            ****
            -Ga     0
            S   8   1.00
             435548.6625400              0.23646329650E-03
              65289.5890310              0.18335271776E-02
              14858.7842560              0.95371863081E-02
               4205.9734729              0.38803412468E-01
               1369.6416431              0.12661604848
                492.30348905             0.30175310292
                191.41923233             0.43543934218
                 75.840558665            0.23282363780
            S   4   1.00
                474.30810613            -0.26743707958E-01
                147.10297560            -0.12654657542
                 23.982599435            0.58840346839
                 10.298230094            0.56324271589
            S   2   1.00
                 16.050381430           -0.24516439508
                  2.6988468784           0.74578049593
            S   1   1.00
                  1.1428588736           1.0000000
            S   1   1.00
                  0.20217652251          1.0000000
            S   1   1.00
                  0.71980152032E-01            1.0000000
            P   6   1.00
               2432.0171070              0.22434065928E-02
                576.12049582             0.18342265336E-01
                185.11584354             0.87279697167E-01
                 69.246572556            0.25684868351
                 27.818107777            0.42398378107
                 11.420229938            0.25701340043
            P   3   1.00
                 42.819661530           -0.19326519119E-01
                  6.3885901000           0.31571386917
                  2.6698993326           0.57617792822
            P   1   1.00
                  1.0781783834           1.0000000
            P   1   1.00
                  0.22796559371          1.0000000
            P   1   1.00
                  0.62836234833E-01            1.0000000
            D   5   1.00
                103.92331829             0.11464613652E-01
                 30.371094389            0.73625747383E-01
                 10.872078097            0.23505107382
                  4.1549137954           0.40318563513
                  1.5345659145           0.40824748152
            D   1   1.00
                  0.51114263830          1.0000000
            D   1   1.00
                  0.30622000             1.0000000
            D   1   1.00
                  0.11391309             1.0000000
            F   1   1.00
                  0.30996095             1.0000000
            S   1   1.00
              0.239933840107E-01   1.000
            P   1   1.00
              0.209454116110E-01   1.000
            ****
            -Ge     0
            S   8   1.00
             466115.0059200              0.22487264660E-03
              69875.4207620              0.17435426729E-02
              15903.2767160              0.90691482206E-02
               4501.8233453              0.36906174685E-01
               1466.0570924              0.12050167907
                527.07841728             0.28748641703
                205.00395074             0.41622321885
                 81.251596065            0.22397845695
            S   4   1.00
                505.74661282            -0.25184609291E-01
                156.96593744            -0.11898929721
                 25.761448176            0.54930135870
                 11.106654687            0.52939309129
            S   2   1.00
                 17.272059104           -0.22854595728
                  2.9438289048           0.68377930317
            S   1   1.00
                  1.2839164916           1.0000000
            S   1   1.00
                  0.25873337445          1.0000000
            S   1   1.00
                  0.93524913177E-01            1.0000000
            P   6   1.00
               2633.9346241              0.22143925310E-02
                624.00161628             0.18140899141E-01
                200.58528404             0.86632184922E-01
                 75.097081525            0.25649020592
                 30.214388474            0.42658611262
                 12.440087567            0.26200527313
            P   3   1.00
                 45.981316002           -0.20321767678E-01
                  6.9945654416           0.32013744527
                  2.9686001327           0.59051014555
            P   1   1.00
                  1.2320988495           1.0000000
            P   1   1.00
                  0.28981614974          1.0000000
            P   1   1.00
                  0.85564606447E-01            1.0000000
            D   5   1.00
                119.44887581             0.10586544521E-01
                 35.062915293            0.69601280945E-01
                 12.636924529            0.22807035287
                  4.8888672922           0.40301067220
                  1.8453195392           0.41304847015
            D   1   1.00
                  0.63571158892          1.0000000
            D   1   1.00
                  0.35492132             1.0000000
            D   1   1.00
                  0.13155709             1.0000000
            F   1   1.00
                  0.36210645             1.0000000
            S   1   1.00
              0.311749710590E-01   1.000
            P   1   1.00
              0.285215354823E-01   1.000
            ****
            -As     0
            S   8   1.00
             498032.4215800              0.22740196900E-03
              74656.8687430              0.17632816413E-02
              16990.9600040              0.91728040381E-02
               4809.6200321              0.37337829344E-01
               1566.2887055              0.12199536117
                563.21360499             0.29137475324
                219.11179978             0.42326351479
                 86.866061030            0.22921464278
            S   4   1.00
                538.19512479            -0.25254197297E-01
                167.14850224            -0.11915461115
                 27.605517159            0.54628495980
                 11.947858521            0.53001520976
            S   2   1.00
                 18.538023133           -0.23479188136
                  3.2018985739           0.69167053428
            S   1   1.00
                  1.4356522077           1.0000000
            S   1   1.00
                  0.31837805200          1.0000000
            S   1   1.00
                  0.11622632186          1.0000000
            P   6   1.00
               2678.9421546              0.23318955287E-02
                634.61765840             0.19042149977E-01
                203.93967606             0.90229744913E-01
                 76.323890369            0.26169037693
                 30.664124943            0.41857168155
                 12.505056732            0.23447830190
            P   4   1.00
                 49.256229549           -0.21235539870E-01
                  7.7274891466           0.30470206668
                  3.5410493476           0.52888373107
                  1.6985585501           0.37272250955
            P   1   1.00
                  0.76848071044          1.0000000
            P   1   1.00
                  0.30050823260          1.0000000
            P   1   1.00
                  0.98190639437E-01            1.0000000
            D   5   1.00
                135.33289305             0.99291144106E-02
                 39.860212744            0.66568843496E-01
                 14.446428359            0.22275768307
                  5.6432900356           0.40309224382
                  2.1668188623           0.41671667946
            D   1   1.00
                  0.76514970569          1.0000000
            D   1   1.00
                  0.42434653             1.0000000
            D   1   1.00
                  0.16331527             1.0000000
            F   1   1.00
                  0.43271941             1.0000000
            S   1   1.00
              0.387421072867E-01   1.000
            P   1   1.00
              0.327302131457E-01   1.000
            ****
            -Se     0
            S   8   1.00
             531071.6669600              0.24108973168E-03
              79603.0441170              0.18696431441E-02
              18115.8442400              0.97271616536E-02
               5127.8923194              0.39604793031E-01
               1669.9130839              0.12948855136
                600.57534527             0.30959437289
                233.70021247             0.45115769216
                 92.672443932            0.24579189033
            S   4   1.00
                571.57513675            -0.26895707881E-01
                177.63686375            -0.12670989353
                 29.517767052            0.57699001719
                 12.824399795            0.56369075408
            S   2   1.00
                 19.848235841           -0.25132415534
                  3.4744018486           0.72905416980
            S   1   1.00
                  1.5988910849           1.0000000
            S   1   1.00
                  0.38333469387          1.0000000
            S   1   1.00
                  0.14049742459          1.0000000
            P   6   1.00
               2815.3500566              0.25569026854E-02
                666.92558298             0.20874026901E-01
                214.34213188             0.98772096250E-01
                 80.246687942            0.28471821221
                 32.251081288            0.45003584934
                 13.106432562            0.24416091055
            P   4   1.00
                 53.366108516           -0.21558456273E-01
                  8.1827777195           0.32662310638
                  3.6239945672           0.57740499319
                  1.6341591401           0.34301320826
            P   1   1.00
                  0.58418320228          1.0000000
            P   1   1.00
                  0.23966269279          1.0000000
            P   1   1.00
                  0.88785134803E-01            1.0000000
            D   5   1.00
                151.82910279             0.93970276988E-02
                 44.839992523            0.64086503991E-01
                 16.328999510            0.21834238004
                  6.4305057612           0.40314789649
                  2.5048025169           0.41966491490
            D   1   1.00
                  0.90271148434          1.0000000
            D   1   1.00
                  0.47683613             1.0000000
            D   1   1.00
                  0.18535160             1.0000000
            F   1   1.00
                  0.48866905             1.0000000
            S   1   1.00
              0.468324748633E-01   1.000
            P   1   1.00
              0.295950449343E-01   1.000
            ****
            -Br     0
            S   8   1.00
             565073.2525600              0.23660314690E-03
              84701.7231790              0.18348332508E-02
              19276.2719000              0.95465849860E-02
               5456.4284576              0.38877142153E-01
               1776.9503500              0.12718314231
                639.19398276             0.30437662191
                248.78823961             0.44490940497
                 98.678305494            0.24381643058
            S   4   1.00
                606.07824568            -0.26527158709E-01
                188.45598484            -0.12484584809
                 31.497144506            0.56468683559
                 13.736008320            0.55555268564
            S   2   1.00
                 21.203212766           -0.24940920493
                  3.7616420178           0.71213119743
            S   1   1.00
                  1.7735933962           1.0000000
            S   1   1.00
                  0.45197413664          1.0000000
            S   1   1.00
                  0.16613377099          1.0000000
            P   6   1.00
               3019.6955723              0.24971049798E-02
                715.35481126             0.20419267596E-01
                229.98328751             0.96897148309E-01
                 86.167844615            0.28053901252
                 34.667870802            0.44606390473
                 14.113870307            0.24410073923
            P   4   1.00
                 57.085653082           -0.21855950710E-01
                  8.8193845840           0.32707075320
                  3.9340302872           0.57855229520
                  1.7998830384           0.33570987698
            P   1   1.00
                  0.66899410512          1.0000000
            P   1   1.00
                  0.27136238231          1.0000000
            P   1   1.00
                  0.10083790243          1.0000000
            D   5   1.00
                168.85370257             0.89663981988E-02
                 49.977949919            0.62062059316E-01
                 18.274913338            0.21474732384
                  7.2455694631           0.40335336746
                  2.8562315025           0.42208813080
            D   1   1.00
                  1.0459621144           1.0000000
            D   1   1.00
                  0.56865655             1.0000000
            D   1   1.00
                  0.22031490             1.0000000
            F   1   1.00
                  0.57083312             1.0000000
            S   1   1.00
              0.553779236633E-01   1.000
            P   1   1.00
              0.336126341433E-01   1.000
            ****
            -Kr     0
            S   8   1.00
             600250.9757500              0.23740610399E-03
              89976.6507810              0.18410240539E-02
              20476.8142250              0.95795580699E-02
               5796.1554078              0.39020650488E-01
               1887.5913196              0.12772645628
                679.11458519             0.30596521300
                264.38244511             0.44857474437
                104.88368574             0.24722957327
            S   4   1.00
                641.47370764            -0.26745279805E-01
                199.57524820            -0.12571122567
                 33.545462954            0.56483736390
                 14.683955144            0.55972765539
            S   2   1.00
                 22.603101860           -0.25298771800
                  4.0650682991           0.70992159965
            S   1   1.00
                  1.9611027060           1.0000000
            S   1   1.00
                  0.52465147979          1.0000000
            S   1   1.00
                  0.19332399511          1.0000000
            P   6   1.00
               3232.9589614              0.24885607974E-02
                765.96442694             0.20379007428E-01
                246.33940810             0.96977188584E-01
                 92.365283041            0.28199960954
                 37.199509551            0.45116254358
                 15.172166534            0.24917131496
            P   4   1.00
                 60.931321698           -0.22173603519E-01
                  9.4792600646           0.32838462778
                  4.2564686326           0.58124997120
                  1.9729313762           0.32863541783
            P   1   1.00
                  0.76337108716          1.0000000
            P   1   1.00
                  0.30943625526          1.0000000
            P   1   1.00
                  0.11569704458          1.0000000
            D   5   1.00
                186.41760904             0.86120284601E-02
                 55.274124345            0.60394406304E-01
                 20.283219120            0.21181331869
                  8.0884536976           0.40366293413
                  3.2214033853           0.42402860686
            D   1   1.00
                  1.1952170102           1.0000000
            D   1   1.00
                  0.6480000              1.0000000
            D   1   1.00
                  0.2510000              1.0000000
            F   1   1.00
                  0.6280000              1.0000000
            S   1   1.00
              0.644413317033E-01   1.000
            P   1   1.00
              0.385656815267E-01   1.000
            ****
            -Rb     0
            S   2   1.00
                  7.4744618040           0.26997866363
                  6.7296180594          -0.42629251814
            S   1   1.00
                  2.7816640004           1.0000000
            S   1   1.00
                  0.53452175148          1.0000000
            S   1   1.00
                  0.22368793034          1.0000000
            S   1   1.00
                  0.32410407052E-01            1.0000000
            S   1   1.00
                  0.14171047424E-01            1.0000000
            P   4   1.00
                  5.6720643194           0.48114224135E-01
                  3.3320183956          -0.18485131426
                  0.80150054910          0.42811864954
                  0.36302220227          0.58673165411
            P   1   1.00
                  0.15733924392          1.0000000
            P   1   1.00
                  0.40000000000E-01            1.0000000
            P   1   1.00
                  0.16000000000E-01            1.0000000
            D   1   1.00
                  0.25907866956          1.0000000
            D   1   1.00
                  0.42507438045E-01            1.0000000
            D   1   1.00
                  0.11909276840E-01            1.0000000
            S   1   1.00
              0.472368247467E-02   1.000
            P   1   1.00
              0.533333333333E-02   1.000
            ****
            -Sr     0
            S   2   1.00
                 10.000000000           -0.18530550262
                  8.5000000000           0.33970355376
            S   1   1.00
                  3.0057048856           1.0000000
            S   1   1.00
                  0.61161287650          1.0000000
            S   1   1.00
                  0.27393841217          1.0000000
            S   1   1.00
                  0.57435564563E-01            1.0000000
            S   1   1.00
                  0.23338198665E-01            1.0000000
            P   4   1.00
                  7.5883077869           0.33731690287E-01
                  3.6731307392          -0.20523185005
                  0.90496618455          0.49209972665
                  0.43310256408          0.62105296512
            P   1   1.00
                  0.20222168964          1.0000000
            P   1   1.00
                  0.72000000000E-01            1.0000000
            P   1   1.00
                  0.25000000000E-01            1.0000000
            D   3   1.00
                  3.6180810000          -0.75010000000E-02
                  0.99665600000          0.10809800000
                  0.39073500000          0.27854000000
            D   1   1.00
                  0.12277000000          1.0000000
            D   1   1.00
                  0.36655000000E-01            1.0000000
            S   1   1.00
              0.777939955500E-02   1.000
            P   1   1.00
              0.833333333333E-02   1.000
            ****
            -Y     0
            S   2   1.00
                 10.000000000           -0.17487686796
                  8.5000000000           0.34152345084
            S   1   1.00
                  3.3653905454           1.0000000
            S   1   1.00
                  0.68860679385          1.0000000
            S   1   1.00
                  0.31191502936          1.0000000
            S   1   1.00
                  0.70326042567E-01            1.0000000
            S   1   1.00
                  0.27733859327E-01            1.0000000
            P   4   1.00
                  8.0554093616           0.36410978939E-01
                  4.0163458751          -0.20872572547
                  1.0232915404           0.48956929335
                  0.49843561636          0.60611943833
            P   1   1.00
                  0.23307661842          1.0000000
            P   1   1.00
                  0.80000000000E-01            1.0000000
            P   1   1.00
                  0.27000000000E-01            1.0000000
            D   3   1.00
                  3.9030833060          -0.98209792625E-02
                  1.1363234302           0.19183629664
                  0.45617043877          0.40597788539
            D   1   1.00
                  0.17470950748          1.0000000
            D   1   1.00
                  0.61978796638E-01            1.0000000
            F   1   1.00
                  0.2651500              1.0000000
            S   1   1.00
              0.924461977567E-02   1.000
            P   1   1.00
              0.900000000000E-02   1.000
            ****
            -Zr     0
            S   2   1.00
                 11.000000000           -0.19075595257
                  9.5000000000           0.33895588754
            S   1   1.00
                  3.6383667759           1.0000000
            S   1   1.00
                  0.76822026698          1.0000000
            S   1   1.00
                  0.34036824036          1.0000000
            S   1   1.00
                  0.75261298085E-01            1.0000000
            S   1   1.00
                  0.30131404705E-01            1.0000000
            P   4   1.00
                  8.6066305543           0.40404260236E-01
[...]
 0.00037912,-0.00027065,0.00028993,-0.19268101,0.12901739,-0.00021567,-
 0.00095528,0.00077716,0.00022556,0.00008195,-0.00088815,-0.00009095,0.
 00015348,-0.00000055,-0.05584687,0.01488186,0.01437890,-0.04822096,-0.
 06322822,0.02201060,-0.00071067,-0.02012957,-0.00506939,0.00627078,0.0
 0740830,-0.00194432,-0.00042592,-0.00048797,0.00019628,0.04512336,-0.0
 5605041,-0.20403839,0.01010432,-0.00190756,-0.01596246,-0.00472334,-0.
 01687870,-0.02260492,0.00398649,-0.00036995,-0.00171404,0.00075018,0.0
 7547223,0.24222035,0.01856538,0.00085653,-0.01707720,0.00189656,0.0154
 7591,0.00429240,-0.00510844,-0.00575941,0.00269753,-0.00012221,0.00023
 955,-0.00036346,-0.01505383,-0.01014152,0.01042481,-0.00032693,0.00246
 594,0.00095845,-0.00205441,-0.00103276,0.00016121,-0.00090351,-0.00058
 228,0.00063041,-0.00048984,0.00000488,-0.00061795,-0.00002303,-0.00045
 918,0.00001907,0.11077197,-0.00049146,-0.00074402,-0.00018885,0.000484
 95,-0.00110601,0.00030314,0.00008377,0.00015033,-0.00004156,0.00009028
 ,-0.00007920,-0.00001533,0.00044308,0.00128457,-0.00010565,-0.05242908
 ,0.45536566,0.00152725,-0.00213749,0.00014856,0.00072493,0.00086262,-0
 .00227117,0.00059270,0.00039375,-0.00057701,-0.00035494,0.00004027,0.0
 0029470,0.00002055,0.00041790,0.00013821,-0.19553851,-0.12310241,0.581
 80409,-0.00007664,-0.00027607,0.00021752,-0.00036524,0.00169728,-0.000
 05345,0.00028242,0.00011486,-0.00014082,0.00023862,0.00012175,0.000403
 29,-0.00007390,-0.00046521,-0.00015602,-0.01812079,0.03534515,-0.00078
 819,0.02366543,0.00039957,0.00159414,0.00000441,0.00153552,-0.00083992
 ,-0.00071676,-0.00039474,-0.00032326,0.00018177,-0.00015986,0.00000975
 ,-0.00032874,-0.00010386,-0.00107666,0.00001556,0.01553131,-0.39541486
 ,0.18333180,-0.01761938,0.39138607,-0.00027036,-0.00045205,-0.00050983
 ,-0.00072412,-0.00030364,0.00146344,0.00013195,0.00010079,-0.00004944,
 0.00044316,-0.00017053,-0.00013855,0.00009291,0.00057397,-0.00011308,0
 .01008737,0.13631491,-0.11784724,-0.00779656,-0.16702723,0.13604923,-0
 .00039900,0.00071898,0.00000021,0.00024562,-0.00033681,0.00047140,-0.0
 0017061,-0.00012564,0.00018222,0.00003149,0.00000149,0.00004324,0.0000
 0605,-0.00018492,-0.00008325,-0.08762481,0.01892830,0.19851483,0.00013
 638,0.00196456,-0.00154383,0.08710748,0.00026941,-0.00020275,0.0000204
 9,-0.00064293,0.00012766,-0.00007863,0.00011558,0.00005997,-0.00010996
 ,-0.00000288,-0.00001312,0.00009111,0.00012315,0.00008561,-0.00006290,
 0.03747770,-0.04941683,-0.06956149,-0.01703088,0.00739122,0.03724969,-
 0.02161853,0.04416550,-0.00033857,0.00011629,0.00022639,0.00059407,-0.
 00018105,-0.00042189,-0.00006598,-0.00002146,0.00010149,0.00003623,-0.
 00000744,-0.00003337,-0.00000367,-0.00000042,-0.00002074,0.18643963,-0
 .02324776,-0.44721307,0.00930215,-0.00906328,-0.01758545,-0.19612141,0
 .03248154,0.46610000,-0.00011968,-0.00009389,-0.00010891,0.00020134,-0
 .00012071,0.00004506,-0.00000198,-0.00000910,0.00004635,0.00022604,-0.
 00000362,-0.00013485,-0.00016664,0.00018802,0.00002023,-0.00088361,0.0
 0137966,-0.00150311,0.00108180,-0.00140737,0.00176465,-0.00004862,-0.0
 0019123,0.00049546,0.63660180,-0.00010782,-0.00038970,0.00012694,-0.00
 014535,-0.00002598,-0.00005901,0.00000145,0.00006603,-0.00003736,-0.00
 014781,-0.00001335,-0.00000474,0.00009171,0.00038770,-0.00000420,0.001
 14193,0.00135422,0.00078358,-0.00053103,-0.00151664,0.00038491,-0.0001
 1301,-0.00016072,-0.00017295,0.03182075,0.35002603,0.00003271,-0.00003
 019,0.00013853,0.00009189,-0.00005210,-0.00015842,-0.00005894,0.000004
 51,-0.00001408,-0.00016846,-0.00008534,-0.00007298,0.00001705,0.000057
 48,0.00003544,-0.00105796,0.00072727,0.00072430,0.00120121,-0.00012640
 ,-0.00050115,0.00064978,-0.00033845,0.00033095,0.18063512,-0.17388766,
 0.17018781,0.00002722,-0.00000342,0.00003829,-0.00003809,0.00001985,-0
 .00001708,-0.00000360,0.00000648,-0.00001253,-0.00006869,-0.00002207,0
 .00002533,0.00002561,-0.00001429,-0.00000164,0.00023768,-0.00015877,0.
 00021090,-0.00010676,0.00012080,-0.00012098,-0.00008452,0.00005411,-0.
 00011565,-0.25879215,0.14682564,-0.17022655,0.28219462,-0.00000026,0.0
 0000942,-0.00001382,-0.00000576,-0.00000255,0.00000869,0.00000552,-0.0
 0000195,0.00000286,0.00002612,0.00000723,0.00000364,-0.00001401,-0.000
 00764,-0.00000294,0.00013307,0.00002346,0.00000175,0.00000755,-0.00018
 856,0.00010412,-0.00002297,0.00000767,-0.00002190,0.19053464,-0.176406
 05,0.16019831,-0.17313471,0.16608163,-0.00000799,0.00001846,-0.0000245
 8,-0.00000898,0.00000213,0.00001651,0.00000823,-0.00000484,0.00000743,
 0.00003917,0.00001655,0.00001809,0.00000095,-0.00001834,-0.00000923,-0
 .00016497,-0.00001161,-0.00005825,0.00005276,0.00009046,-0.00007160,0.
 00002653,0.00001271,0.00008015,-0.19628243,0.14711912,-0.15038541,0.19
 224382,-0.14943170,0.15051296,0.00019148,0.00041378,0.00002962,-0.0000
 8871,0.00013810,-0.00003485,-0.00000716,-0.00004636,-0.00001716,-0.000
 19005,0.00003380,0.00012585,0.00015937,-0.00050874,-0.00001666,-0.0007
 8329,-0.00240702,0.00146533,-0.00045409,0.00366928,-0.00337128,0.00051
 704,-0.00001388,-0.00015034,-0.35803778,-0.18025086,-0.00949147,-0.021
 83479,-0.01702341,0.00258516,0.37723584,0.00004756,0.00026455,-0.00005
 854,0.00011104,-0.00001300,-0.00001201,-0.00001973,-0.00004717,0.00002
 454,0.00006908,0.00003439,0.00006310,-0.00001870,-0.00023698,0.0000063
 2,-0.00131466,-0.00039332,-0.00050688,0.00166923,0.00122522,0.00013535
 ,0.00016941,-0.00000218,0.00029507,-0.22333381,-0.16713833,0.01504181,
 0.02634505,0.01148773,0.00218224,0.19618556,0.16273210,-0.00003660,-0.
 00003223,-0.00010074,-0.00010729,0.00005038,0.00012961,0.00004999,0.00
 000724,0.00000200,0.00014281,0.00012903,0.00009016,0.00000881,0.000000
 42,-0.00002830,0.00115875,-0.00091019,-0.00036526,-0.00194322,0.000565
 48,0.00046157,-0.00037380,0.00046741,-0.00044858,0.01506798,0.03029205
 ,-0.02017568,-0.02242045,-0.01246868,-0.00060741,0.00688062,-0.0165080
 9,0.02558440,0.00012520,0.00062779,-0.00055281,0.00047519,-0.00002679,
 0.00044329,0.00002889,-0.00014372,0.00015255,0.00095539,-0.00081166,0.
 00012653,-0.00031406,-0.00052534,0.00004739,0.00097665,-0.00187215,-0.
 00682804,-0.00026949,0.00138514,0.00064513,-0.00185608,-0.00124163,-0.
 00040529,0.00032431,0.00829598,0.00144488,0.00070320,0.00030376,0.0005
 4130,-0.00397959,0.00029446,-0.00014011,0.40959277,-0.00041388,-0.0004
 3965,-0.00004986,-0.00011414,-0.00037410,-0.00009278,-0.00005417,0.000
 00226,0.00002886,-0.00064230,-0.00241898,0.00169247,0.00016325,0.00064
 981,-0.00004370,-0.00238347,0.00275147,-0.00515583,0.00177117,0.000204
 85,0.00277857,-0.00075195,-0.00048327,-0.00001223,0.00837964,-0.008744
 02,-0.00112408,-0.00076002,-0.00152245,-0.00161687,0.00030497,0.002462
 39,0.00103457,-0.24260632,0.27350950,0.00024325,0.00027905,0.00036589,
 0.00063474,-0.00016080,-0.00053696,-0.00024974,-0.00004934,0.00000682,
 0.00006137,0.00213081,-0.00132725,-0.00011045,-0.00018217,0.00015737,-
 0.00763955,-0.00564842,-0.00710145,0.00117261,0.00316873,-0.00200688,-
 0.00051531,-0.00019200,0.00094785,0.00183517,-0.00091551,0.00472574,0.
 00001837,-0.00148870,-0.00081723,0.00013298,0.00021360,-0.00102551,0.1
 5440918,0.05624026,0.45894163,-0.00020628,-0.00068138,0.00025084,-0.00
 112357,-0.00006073,-0.00017144,0.00021468,0.00016343,-0.00009901,-0.00
 015467,-0.00036676,0.00081062,0.00039491,0.00063389,-0.00014247,-0.005
 24796,-0.00002332,0.00112180,0.00041352,-0.00217344,0.00081637,0.00207
 009,0.00219036,0.00059909,0.00045250,-0.00104403,0.00028075,-0.0001545
 9,-0.00028252,0.00001761,0.00097902,0.00052401,0.00029201,-0.13217694,
 0.02101028,-0.16865684,0.14865888,0.00019393,0.00001253,-0.00005075,-0
 .00033878,0.00050253,0.00018620,0.00015112,0.00004351,-0.00006277,-0.0
 0021705,0.00006721,0.00014684,-0.00008784,-0.00032441,-0.00002317,0.00
 245286,-0.00289920,0.00482057,-0.00310197,-0.00370032,-0.00273258,0.00
 088947,0.00100056,-0.00024536,-0.00122529,-0.00090871,-0.00155497,0.00
 004541,0.00033590,0.00011540,0.00092711,-0.00087431,0.00045261,0.00519
 670,-0.02764878,-0.02908876,-0.02244763,0.03202297,-0.00004516,-0.0000
 5911,-0.00036845,-0.00059024,0.00018353,0.00087160,0.00021866,0.000052
 12,-0.00002562,0.00058528,0.00016205,-0.00006001,-0.00001802,-0.000098
 31,-0.00010741,0.00277948,0.00454676,-0.00327532,-0.00008920,-0.002749
 02,0.00417022,-0.00043702,-0.00056669,-0.00205985,0.00041330,-0.001998
 08,-0.00145375,-0.00005710,0.00005546,-0.00002709,0.00048358,0.0004596
 5,0.00076922,-0.20332122,0.00192230,-0.39355232,0.19763640,-0.00275461
 ,0.39680542,-0.00000309,-0.00020398,0.00012223,-0.00016249,0.00004895,
 -0.00003335,0.00000174,0.00004809,-0.00004571,-0.00008160,0.00026995,-
 0.00020103,0.00010155,0.00015001,-0.00001191,0.00133452,0.00044731,0.0
 0165271,-0.00068005,-0.00099203,-0.00067636,0.00025370,-0.00006099,-0.
 00018919,-0.00784197,-0.00118519,-0.00085847,-0.00090804,0.00136722,0.
 00026798,0.00454055,-0.00326689,-0.00076151,-0.26281090,0.22158831,0.0
 1535206,-0.01665638,0.01672388,0.00301418,0.28771244,0.00017802,0.0003
 7168,-0.00013707,0.00018082,0.00007192,0.00012182,0.00000509,-0.000057
 23,0.00003352,0.00025105,0.00012987,-0.00023605,-0.00011029,-0.0004065
 1,0.00001794,-0.00040993,-0.00207184,-0.00097861,-0.00081015,0.0012342
 6,-0.00095219,-0.00013692,0.00012719,-0.00012688,-0.00196140,0.0008522
 5,0.00104128,0.00164252,0.00102487,0.00130962,-0.00318842,-0.00356151,
 -0.00165717,0.23784060,-0.22947190,-0.02777809,0.00127265,0.00124697,-
 0.00105504,-0.23587393,0.22814646,-0.00000418,-0.00002189,-0.00006675,
 -0.00002418,0.00006328,0.00009546,0.00002154,0.00000334,-0.00000582,-0
 .00015222,-0.00032898,0.00016730,0.00000366,-0.00000364,-0.00001706,0.
 00189204,-0.00056862,-0.00023306,-0.00092613,-0.00064835,-0.00002123,-
 0.00056630,-0.00025345,-0.00051078,-0.00086090,-0.00223224,-0.00622677
 ,0.00011555,0.00270719,0.00107054,-0.00044898,0.00005580,0.00095002,0.
 05123041,-0.05729243,-0.05469038,-0.03339849,0.02923781,0.00365395,-0.
 02020603,0.03065489,0.05596941,-0.00154345,0.00043841,-0.00228745,-0.0
 0066801,-0.00000469,0.00061603,0.00020723,-0.00008561,0.00009110,-0.42
 533808,0.21621576,0.03805561,-0.00008959,0.00008837,-0.00025465,0.0021
 8035,0.00071002,0.00094492,-0.00112889,-0.00021306,-0.00006345,-0.0001
 8028,-0.00007941,-0.00020130,-0.00060413,0.00149828,0.00120519,0.00035
 787,-0.00015345,-0.00021229,-0.00049519,-0.00099686,-0.00100703,-0.010
 26656,-0.01208868,0.01673246,-0.00364234,-0.00080676,-0.00159852,0.002
 21487,-0.00120499,-0.00086547,0.62489392,0.00027971,-0.00237353,0.0015
 6828,0.00005827,0.00003865,-0.00042120,-0.00012584,0.00025083,-0.00013
 411,0.17347766,-0.14060825,-0.00581170,0.00032109,0.00211288,-0.000423
 75,0.00091874,0.00257143,0.00014245,-0.00030783,-0.00329113,0.00202681
 ,-0.00009689,-0.00002472,0.00003393,0.00105336,0.00224217,0.00038451,-
 0.00015605,0.00006354,0.00000032,-0.00298794,-0.00106069,-0.00003321,-
 0.01329369,-0.00061429,0.01148627,-0.00177018,-0.00082916,-0.00221941,
 0.00048819,-0.00413924,0.00150252,-0.03370672,0.38499278,-0.00126935,0
 .00134120,-0.00123141,0.00036055,-0.00028562,0.00056557,-0.00045489,-0
 .00001734,-0.00023141,0.05407268,-0.01882229,-0.01263428,-0.00038116,-
 0.00048439,0.00032302,-0.00015245,0.00108141,-0.00171346,-0.00013322,-
 0.00107533,0.00247546,-0.00005821,-0.00011931,0.00027457,0.00175259,-0
 .00014241,0.00068074,-0.00008647,-0.00009514,-0.00039233,-0.00232334,-
 0.00026381,-0.00045095,0.01326940,0.00814055,-0.00514873,-0.00075821,-
 0.00121070,0.00171869,-0.00090744,0.00140781,-0.00095017,-0.15515185,-
 0.09824166,0.11314621,0.00025795,-0.00040271,0.00073527,0.00038467,0.0
 0010833,-0.00073984,-0.00016338,0.00011265,-0.00008063,-0.02346280,-0.
 02629093,0.01428411,0.00009826,0.00034434,0.00000638,-0.00255905,-0.00
 172710,-0.00076880,0.00107505,0.00114537,-0.00107672,0.00022015,0.0001
 3446,0.00022102,0.00047322,-0.00264642,-0.00128155,-0.00021972,0.00012
 919,0.00003954,0.00167353,0.00135480,0.00051905,-0.00291821,0.00655354
 ,-0.01317857,0.00671954,0.00188238,0.00113968,-0.00546973,0.00100763,0
 .00355998,-0.17836983,-0.12544012,0.08972724,0.20186595,0.00020315,0.0
 0033517,0.00014867,0.00025511,0.00012891,-0.00005326,-0.00003506,0.000
 00977,-0.00001642,0.01857806,0.01517373,-0.00968649,-0.00022610,-0.000
 53448,0.00004885,-0.00139525,-0.00159722,-0.00050153,0.00046944,0.0012
 3182,-0.00143949,0.00011170,0.00000795,0.00008428,-0.00057645,-0.00168
 031,0.00054825,0.00020515,-0.00020111,-0.00015527,0.00145168,-0.000116
 31,-0.00080342,0.00503588,-0.00813563,-0.00513659,0.00254220,0.0010933
 6,0.00214222,0.00056323,0.00559017,-0.00351692,-0.17197136,-0.23217335
 ,0.11542087,0.14783315,0.22672706,-0.00035709,-0.00063885,-0.00007490,
 -0.00060878,0.00009227,-0.00016408,0.00028725,0.00007482,0.00001915,0.
 00029455,0.00174830,-0.00026746,0.00017840,0.00049753,-0.00028891,0.00
 130495,0.00104543,0.00191916,-0.00073150,-0.00167155,-0.00049072,0.000
 00120,0.00010813,-0.00021153,-0.00086581,0.00193201,-0.00020336,-0.000
 00122,0.00022200,0.00036729,-0.00035382,-0.00097165,0.00005785,-0.0120
 2691,-0.00557047,0.00177885,0.00156902,0.00224252,-0.00597867,0.003449
 30,-0.00289654,0.00075363,0.10067186,0.10146088,-0.07820040,-0.0906758
 2,-0.09663040,0.07781185,0.00016224,0.00090178,0.00009636,0.00017811,0
 .00000255,-0.00031377,-0.00003492,-0.00006756,0.00001301,0.00011540,0.
 00417510,0.00379892,0.00019055,-0.00079564,0.00018398,-0.00074564,0.00
 063194,-0.00014722,0.00116071,-0.00086039,0.00023105,-0.00003348,-0.00
 006681,0.00006531,0.00120376,-0.00036975,-0.00161352,-0.00044100,0.000
 04608,-0.00000826,-0.00214974,0.00222332,0.00418922,-0.00087606,0.0013
 8695,0.00045488,0.00029643,-0.00046072,0.00034021,-0.00060675,-0.00141
 594,0.00032821,-0.01416172,-0.00648613,-0.00361944,0.00335337,-0.00286
 851,-0.00453694,0.07505478,0.00019011,0.00127989,-0.00084200,-0.000051
 65,-0.00018551,0.00076898,0.00003131,-0.00028865,0.00012725,0.00348723
 ,0.00037166,0.00107095,-0.00016766,-0.00115713,0.00001103,0.00025708,-
 0.00412910,-0.00052167,-0.00091145,0.00720081,0.00021331,-0.00003881,0
 .00028587,-0.00028239,-0.00198169,-0.00259730,-0.00091249,0.00021836,0
 .00000180,0.00013998,0.00502424,0.00266644,0.00056521,0.00387338,0.001
 81385,-0.00311501,-0.00019710,-0.00042019,0.00193998,-0.00167569,0.001
 34932,0.00068789,-0.00386145,0.00662126,0.01409382,-0.00614366,-0.0083
 8998,-0.00165510,-0.02715385,0.13645613,-0.00010578,0.00094216,-0.0006
 3171,-0.00053362,0.00042137,0.00032770,0.00029361,-0.00016913,0.000084
 54,0.00388316,0.00266480,0.00272632,0.00009833,-0.00094167,-0.00028652
 ,-0.00076961,-0.00289459,0.00209370,0.00127153,0.00390708,-0.00699927,
 0.00018985,-0.00022455,-0.00020795,-0.00229025,-0.00193078,-0.00176146
 ,-0.00009888,0.00006702,0.00053300,0.00526117,0.00166550,0.00157443,0.
 00241078,0.00036600,-0.00436178,0.00098906,0.00134903,0.00133100,-0.00
 039782,0.00127245,0.00079120,-0.00297193,0.01363082,0.00020648,-0.0066
 4896,-0.00316250,0.00692671,-0.08138399,0.13999817,0.26141046,-0.00033
 700,-0.00196199,0.00005003,-0.00008325,-0.00024716,0.00016687,0.000122
 27,0.00023054,-0.00001880,0.00002529,-0.00112680,-0.00129866,-0.001819
 31,0.00211306,0.00010992,0.00460089,-0.00041138,0.00013362,-0.00716429
 ,-0.00076569,0.00000549,-0.00022412,0.00053743,-0.00008095,-0.01244146
 ,-0.00399221,-0.00068058,-0.00035745,-0.00144421,0.00076104,0.00077890
 ,0.00220358,-0.00130904,0.00221965,-0.00143864,-0.00062619,-0.00081533
 ,0.00032132,-0.00049483,-0.00096598,0.00269392,0.00027412,0.00758402,0
 .00638035,0.00397205,-0.00274227,0.00010689,0.00256059,-0.06907056,0.0
 2103129,0.08028869,0.29689244,-0.00044213,-0.00076851,0.00046256,-0.00
 060669,0.00054719,-0.00009489,0.00017102,0.00028985,-0.00018515,-0.002
 04755,-0.00100277,-0.00139374,0.00090721,0.00065885,-0.00012653,-0.000
 91065,-0.00633984,0.01147879,0.00158223,-0.00314156,-0.00664328,0.0006
 0992,-0.00280623,0.00018041,-0.00468526,0.00424727,0.00029667,-0.00135
 124,-0.00092993,0.00018789,0.00116448,-0.00736327,-0.00151383,-0.00248
 605,-0.00164897,0.00023239,0.00082286,0.00133604,0.00014846,0.00160431
 ,-0.00030677,-0.00003913,0.00509123,-0.01397310,-0.02012790,0.00218988
 ,0.00255283,0.00033858,0.04821631,-0.12455179,-0.16078196,0.21406686,0
 .48783153,0.00021680,-0.00020023,0.00058412,0.00069564,-0.00042263,-0.
 00073440,-0.00029513,0.00003105,-0.00002888,-0.00303055,-0.00175588,-0
 .00230662,-0.00006749,0.00022099,0.00042933,0.00155743,0.01184793,-0.0
 0429957,-0.00345565,-0.00806196,-0.00154934,-0.00049620,0.00054472,0.0
 0072561,-0.00056096,0.00092222,0.00396946,0.00045709,0.00005646,-0.000
 31639,0.00041170,-0.00216625,-0.00596113,-0.00146851,-0.00146697,0.003
 63871,-0.00122735,-0.00062607,-0.00250548,0.00049364,0.00009707,-0.000
 62585,0.00430594,-0.02396059,-0.01574836,0.00432559,0.00232071,-0.0041
 3601,0.10625874,-0.12636700,-0.26674456,-0.09170654,0.19702800,0.33064
 646,0.00057899,0.00089360,-0.00024282,0.00016871,-0.00014532,0.0000012
 7,-0.00015258,-0.00025669,0.00008040,0.00033225,0.00027237,0.00031063,
 -0.00052635,-0.00082998,0.00010217,-0.00033921,0.00097583,-0.00098073,
 0.00038620,-0.00106172,0.00142557,0.00003353,0.00004697,-0.00008062,-0
 .00162676,0.00085774,-0.00012108,-0.00053681,-0.00047185,0.00010083,0.
 00194464,-0.00224643,-0.00021019,0.00006665,0.00009546,-0.00007042,-0.
 00002153,-0.00009816,0.00004055,0.00002761,0.00003967,0.00002735,-0.00
 095020,0.00139400,0.00214152,-0.00021670,-0.00028289,-0.00015922,0.006
 40451,0.00807003,0.00051467,-0.21620245,-0.26389676,-0.01641420,0.2106
 2951,-0.00009513,-0.00061123,-0.00000289,0.00000850,-0.00010991,0.0000
 2151,0.00002418,0.00006255,0.00001579,-0.00018277,-0.00026558,-0.00050
 352,-0.00035580,0.00066386,0.00002209,0.00053377,0.00069031,0.00019242
 ,-0.00172469,-0.00198523,-0.00016144,0.00003260,-0.00014939,0.00019161
 ,0.00223378,0.00040543,-0.00018841,0.00011720,0.00021699,0.00004375,-0
 .00288638,-0.00006575,0.00036240,0.00015365,0.00010790,0.00000429,-0.0
 0011259,-0.00005651,-0.00011225,-0.00004073,-0.00012995,-0.00000708,0.
 00113097,0.00019391,-0.00059975,-0.00014478,-0.00002237,0.00027210,-0.
 01703873,-0.01632738,0.00382078,-0.23829715,-0.33463083,-0.04804158,0.
 25664410,0.35201318,-0.00002470,0.00001867,-0.00011180,0.00001385,0.00
 008907,0.00005127,0.00000795,-0.00001826,0.00002282,-0.00009507,-0.000
 52170,-0.00035993,0.00002078,-0.00001547,-0.00018622,-0.00104777,0.000
 86814,-0.00216784,0.00259290,0.00020334,0.00326386,0.00011607,0.000531
 63,-0.00007379,0.00053132,-0.00017591,0.00016012,0.00004919,0.00009537
 ,0.00010357,-0.00116811,0.00034426,-0.00045571,0.00002205,0.00022165,0
 .00000564,0.00007022,-0.00020125,0.00009384,-0.00006328,-0.00013878,-0
 .00010363,0.00199083,-0.00099116,-0.00268925,-0.00010696,0.00038844,0.
 00038155,-0.02433676,-0.02592091,0.00298770,0.00789320,-0.01944733,-0.
 03503710,0.01353430,0.04467018,0.03411490\\0.00000792,0.00003539,0.000
 00028,-0.00000027,-0.00002112,-0.00000688,-0.00000490,-0.00001011,0.00
 000637,0.00000084,-0.00000235,0.00000215,-0.00000675,-0.00001546,-0.00
 000023,-0.00000957,0.00000423,0.00000384,0.00002096,-0.00000313,0.0000
 0455,-0.00000970,0.00000341,-0.00000278,-0.00000529,0.00000638,-0.0000
 0740,-0.00000172,-0.00000013,-0.00000112,0.00001008,0.00000590,0.00000
 744,-0.00000866,-0.00000055,-0.00000151,0.00000489,-0.00000313,0.00000
 673,0.00001462,0.00000294,-0.00000562,0.00000145,-0.00000566,-0.000027
 93,0.00000041,0.00000482,0.00002251,0.00000333,0.00000295,0.00001123,-
 0.00002111,-0.00000511,-0.00000822,0.00000346,0.00000074,-0.00000342\\
 \@
 The archive entry for this job was punched.


 A COMPLEXITY IS MERELY A DISARRANGEMENT OF SIMPLICITIES.

                                    -- G. O. ABELL IN "EXPLORATION OF THE UNIVERSE"
 Job cpu time:       0 days  3 hours  7 minutes 13.9 seconds.
 Elapsed time:       0 days  0 hours  6 minutes 20.1 seconds.
 File lengths (MBytes):  RWF=    340 Int=      0 D2E=      0 Chk=     13 Scr=      1
 Normal termination of Gaussian 16 at Mon Dec  5 10:51:07 2022.
