 Entering Gaussian System, Link 0=g16
 AtFile(1): /nscratch/usr/yutong/script/ma-def2-basis-set-definition/ma-TZVP.txt
            -H     0
            S   3   1.00
                 34.0613410              0.60251978E-02
                  5.1235746              0.45021094E-01
                  1.1646626              0.20189726
            S   1   1.00
                  0.32723041             1.0000000
            S   1   1.00
                  0.10307241             1.0000000
            P   1   1.00
                  0.8000000              1.0000000
            ****
            -He     0
            S   3   1.00
                 98.078321616            0.75803064967E-02
                 14.764404247            0.54848620937E-01
                  3.3185831473           0.22074382186
            S   1   1.00
                  0.87413869551          1.0000000
            S   1   1.00
                  0.24459897208          1.0000000
            P   1   1.00
                  1.0000000              1.0000000
            S   1   1.00
              0.815329906933E-01   1.000
            P   1   1.00
              0.333333333333E+00   1.000
            ****
            -Li     0
            S   6   1.00
               6269.2628010              0.20540968826E-03
                940.31612431             0.15916554089E-02
                214.22107528             0.82869829707E-02
                 60.759840184            0.33856374249E-01
                 19.915152032            0.11103225876
                  7.3171509797           0.27449383329
            S   2   1.00
                  2.9724674216           0.23792456411
                  1.2639852314           0.30765411924
            S   1   1.00
                  0.51427489953          1.0000000
            S   1   1.00
                  0.77030885901E-01            1.0000000
            S   1   1.00
                  0.28938896433E-01            1.0000000
            P   1   1.00
                  0.4000000              1.0000000
            P   1   1.00
                  0.0600000              1.0000000
            P   1   1.00
                  3.3270000              1.0000000
            S   1   1.00
              0.964629881100E-02   1.000
            P   1   1.00
              0.200000000000E-01   1.000
            ****
            -Be     0
            S   6   1.00
               4700.2365626              0.23584389316E-03
                704.82845622             0.18243791019E-02
                160.43110478             0.93966148224E-02
                 45.425347336            0.36908924159E-01
                 14.798334125            0.10897561281
                  5.3512452537           0.21694284551
            S   2   1.00
                  2.1542044819           0.44695408857
                  0.93363744400          0.20866985771
            S   1   1.00
                  0.18791432989          1.0000000
            S   1   1.00
                  0.74648267947E-01            1.0000000
            S   1   1.00
                  0.32650484598E-01            1.0000000
            P   2   1.00
                  0.71695694366         -0.16877854032
                  0.19541932860         -0.51403419628
            P   1   1.00
                  3.6316917145           1.0000000
            P   1   1.00
                  0.60515465890E-01            1.0000000
            D   1   1.00
                  0.1800000              1.0000000
            S   1   1.00
              0.108834948660E-01   1.000
            P   1   1.00
              0.201718219633E-01   1.000
            ****
            -B     0
            S   6   1.00
               8564.8660687              0.22837198155E-03
               1284.1516263              0.17682576447E-02
                292.27871604             0.91407080516E-02
                 82.775469176            0.36342638989E-01
                 27.017939269            0.11063458441
                  9.8149619660           0.23367344321
            S   2   1.00
                  3.9318559059           0.41818777978
                  1.6595599712           0.22325473798
            S   1   1.00
                  0.35762965239          1.0000000
            S   1   1.00
                  0.14246277496          1.0000000
            S   1   1.00
                  0.60560594768E-01            1.0000000
            P   4   1.00
                 22.453875803            0.50265575179E-02
                  5.1045058330           0.32801738965E-01
                  1.4986081344           0.13151230768
                  0.50927831315          0.33197167769
            P   1   1.00
                  0.18147077798          1.0000000
            P   1   1.00
                  0.64621893904E-01            1.0000000
            D   1   1.00
                  0.66100000             1.0000000
            D   1   1.00
                  0.19900000             1.0000000
            F   1   1.00
                  0.49000000             1.0000000
            S   1   1.00
              0.201868649227E-01   1.000
            P   1   1.00
              0.215406313013E-01   1.000
            ****
            -C     0
            S   6   1.00
              13575.3496820              0.22245814352E-03
               2035.2333680              0.17232738252E-02
                463.22562359             0.89255715314E-02
                131.20019598             0.35727984502E-01
                 42.853015891            0.11076259931
                 15.584185766            0.24295627626
            S   2   1.00
                  6.2067138508           0.41440263448
                  2.5764896527           0.23744968655
            S   1   1.00
                  0.57696339419          1.0000000
            S   1   1.00
                  0.22972831358          1.0000000
            S   1   1.00
                  0.95164440028E-01            1.0000000
            P   4   1.00
                 34.697232244            0.53333657805E-02
                  7.9582622826           0.35864109092E-01
                  2.3780826883           0.14215873329
                  0.81433208183          0.34270471845
            P   1   1.00
                  0.28887547253          1.0000000
            P   1   1.00
                  0.10056823671          1.0000000
            D   1   1.00
                  1.09700000             1.0000000
            D   1   1.00
                  0.31800000             1.0000000
            F   1   1.00
                  0.76100000             1.0000000
            S   1   1.00
              0.317214800093E-01   1.000
            P   1   1.00
              0.335227455700E-01   1.000
            ****
            -N     0
            S   6   1.00
              19730.8006470              0.21887984991E-03
               2957.8958745              0.16960708803E-02
                673.22133595             0.87954603538E-02
                190.68249494             0.35359382605E-01
                 62.295441898            0.11095789217
                 22.654161182            0.24982972552
            S   2   1.00
                  8.9791477428           0.40623896148
                  3.6863002370           0.24338217176
            S   1   1.00
                  0.84660076805          1.0000000
            S   1   1.00
                  0.33647133771          1.0000000
            S   1   1.00
                  0.13647653675          1.0000000
            P   4   1.00
                 49.200380510            0.55552416751E-02
                 11.346790537            0.38052379723E-01
                  3.4273972411           0.14953671029
                  1.1785525134           0.34949305230
            P   1   1.00
                  0.41642204972          1.0000000
            P   1   1.00
                  0.14260826011          1.0000000
            D   1   1.00
                  1.65400000             1.0000000
            D   1   1.00
                  0.46900000             1.0000000
            F   1   1.00
                  1.09300000             1.0000000
            S   1   1.00
              0.454921789167E-01   1.000
            P   1   1.00
              0.475360867033E-01   1.000
            ****
            -O     0
            S   6   1.00
              27032.3826310              0.21726302465E-03
               4052.3871392              0.16838662199E-02
                922.32722710             0.87395616265E-02
                261.24070989             0.35239968808E-01
                 85.354641351            0.11153519115
                 31.035035245            0.25588953961
            S   2   1.00
                 12.260860728            0.39768730901
                  4.9987076005           0.24627849430
            S   1   1.00
                  1.1703108158           1.0000000
            S   1   1.00
                  0.46474740994          1.0000000
            S   1   1.00
                  0.18504536357          1.0000000
            P   4   1.00
                 63.274954801            0.60685103418E-02
                 14.627049379            0.41912575824E-01
                  4.4501223456           0.16153841088
                  1.5275799647           0.35706951311
            P   1   1.00
                  0.52935117943          1.0000000
            P   1   1.00
                  0.17478421270          1.0000000
            D   1   1.00
                  2.31400000             1.0000000
            D   1   1.00
                  0.64500000             1.0000000
            F   1   1.00
                  1.42800000             1.0000000
            S   1   1.00
              0.616817878567E-01   1.000
            P   1   1.00
              0.582614042333E-01   1.000
            ****
            -F     0
            S   6   1.00
              35479.1004410              0.21545014888E-03
               5318.4728983              0.16700686527E-02
               1210.4810975              0.86733211476E-02
                342.85518140             0.35049933175E-01
                112.01943181             0.11165320133
                 40.714740248            0.25988506647
            S   2   1.00
                 16.039678111            0.39422966880
                  6.5038186740           0.24998238551
            S   1   1.00
                  1.5440477509           1.0000000
            S   1   1.00
                  0.61223452862          1.0000000
            S   1   1.00
                  0.24027979698          1.0000000
            P   4   1.00
                 80.233900483            0.63685999134E-02
                 18.594010743            0.44303143530E-01
                  5.6867902653           0.16867248708
                  1.9511006294           0.36166346255
            P   1   1.00
                  0.66970211298          1.0000000
            P   1   1.00
                  0.21651300410          1.0000000
            D   1   1.00
                  3.10700000             1.0000000
            D   1   1.00
                  0.85500000             1.0000000
            F   1   1.00
                  1.91700000             1.0000000
            S   1   1.00
              0.800932656600E-01   1.000
            P   1   1.00
              0.721710013667E-01   1.000
            ****
            -Ne     0
            S   6   1.00
              45069.4640220              0.21687155182E-03
               6755.9768656              0.16812736757E-02
               1537.6502864              0.87356062782E-02
                435.51697667             0.35361266922E-01
                142.28655638             0.11321521454
                 51.692153804            0.26654653104
            S   2   1.00
                 20.315870490            0.39631959951
                  8.2021942646           0.25582811251
            S   1   1.00
                  1.9681276278           1.0000000
            S   1   1.00
                  0.77904756001          1.0000000
            S   1   1.00
                  0.30229502043          1.0000000
            P   4   1.00
                 99.782996032            0.65569234163E-02
                 23.176124101            0.45888009138E-01
                  7.1163945872           0.17331287812
                  2.4418711435           0.36475267512
            P   1   1.00
                  0.83389605766          1.0000000
            P   1   1.00
                  0.26607311301          1.0000000
            D   1   1.00
                  4.01400000             1.0000000
            D   1   1.00
                  1.09600000             1.0000000
            F   1   1.00
                  2.54400000             1.0000000
            S   1   1.00
              0.100765006810E+00   1.000
            P   1   1.00
              0.886910376700E-01   1.000
            ****
            -Na     0
            S   7   1.00
              26041.1099270              0.61806342811E-03
               3906.1268548              0.47748604414E-02
                888.97454993             0.24471684829E-01
                251.45497961             0.94755394977E-01
                 81.650143512            0.26867496920
                 28.904158401            0.47925475440
                 10.625782932            0.33248591469
            S   3   1.00
                 53.769410179            0.19527731872E-01
                 16.308243025            0.92648010794E-01
                  2.3730384125          -0.39938670172
            S   2   1.00
                  0.95730772603          1.6428595391
                  0.40806460959          0.55692596966
            S   1   1.00
                  0.49967582329E-01            1.0000000
            S   1   1.00
                  0.19268616250E-01            1.0000000
            P   5   1.00
                138.07979989             0.57951891929E-02
                 32.232700393            0.41620846251E-01
                  9.9816075360           0.16281916885
                  3.4822033928           0.36011784647
                  1.2299134620           0.44858979889
            P   1   1.00
                  0.41743959423          1.0000000
            P   1   1.00
                  0.0300000              1.0000000
            P   1   1.00
                  0.0910000              1.0000000
            D   1   1.00
                  2.6090000              1.0000000
            D   1   1.00
                  0.4300000              1.0000000
            D   1   1.00
                  0.1000000              1.0000000
            S   1   1.00
              0.642287208333E-02   1.000
            P   1   1.00
              0.100000000000E-01   1.000
            ****
            -Mg     0
            S   7   1.00
              31438.3495550              0.60912311326E-03
               4715.5153354              0.47066196465E-02
               1073.1629247              0.24135820657E-01
                303.57238768             0.93628959834E-01
                 98.626251042            0.26646742093
                 34.943808417            0.47890929917
                 12.859785199            0.33698490286
            S   3   1.00
                 64.876913004            0.19180889307E-01
                 19.725520777            0.90913704392E-01
                  2.8951804339          -0.39563756125
            S   2   1.00
                  1.1960454710           1.6827603373
                  0.54329451156          0.52141091954
            S   1   1.00
                  0.10099104092          1.0000000
            S   1   1.00
                  0.36865728085E-01            1.0000000
            P   5   1.00
                179.87189612             0.53799549018E-02
                 42.120069376            0.39318014098E-01
                 13.120503032            0.15740129476
                  4.6257503609           0.35919094128
                  1.6695211016           0.45533379310
            P   1   1.00
                  0.58551012105          1.0000000
            P   1   1.00
                  0.18914796195          1.0000000
            P   1   1.00
                  0.53768755187E-01            1.0000000
            D   1   1.00
                  3.4440000              1.0000000
            D   1   1.00
                  0.2900000              1.0000000
            D   1   1.00
                  0.0700000              1.0000000
            S   1   1.00
              0.122885760283E-01   1.000
            P   1   1.00
              0.179229183957E-01   1.000
            ****
            -Al     0
            S   7   1.00
              37792.5507720              0.57047888709E-03
               5668.0682165              0.44093016538E-02
               1289.8582841              0.22630967411E-01
                364.86596028             0.88025644295E-01
                118.57631515             0.25223701612
                 42.024867605            0.45960547169
                 15.499501629            0.33277886014
            S   3   1.00
                 75.208026598            0.19250560190E-01
                 23.031408972            0.87906743952E-01
                  3.6348797649          -0.34246704535
            S   2   1.00
                  1.6065049957           1.5106266058
                  0.76103394581          0.58071016470
            S   1   1.00
                  0.16556708849          1.0000000
            S   1   1.00
                  0.60041577113E-01            1.0000000
            P   5   1.00
                452.52303192             0.23110812466E-02
                107.08195049             0.18568641823E-01
                 34.131021255            0.87216237035E-01
                 12.587037428            0.26902101523
                  4.9811919704           0.52128324272
            P   1   1.00
                  2.0070350900           1.0000000
            P   1   1.00
                  0.80083714374          1.0000000
            P   1   1.00
                  0.20178927472          1.0000000
            P   1   1.00
                  0.57895550392E-01            1.0000000
            D   2   1.00
                  1.57000000             0.20000000
                  0.333000000            1.00000000
            D   1   1.00
                  0.111000000            1.0000000
            F   1   1.00
                  0.244000000            1.0000000
            S   1   1.00
              0.200138590377E-01   1.000
            P   1   1.00
              0.192985167973E-01   1.000
            ****
            -Si     0
            S   7   1.00
              44773.3580780              0.55914765868E-03
               6717.1992104              0.43206040189E-02
               1528.8960325              0.22187096460E-01
                432.54746585             0.86489249116E-01
                140.61505226             0.24939889716
                 49.857636724            0.46017197366
                 18.434974885            0.34250236575
            S   3   1.00
                 86.533886111            0.21300063007E-01
                 26.624606846            0.94676139318E-01
                  4.4953057159          -0.32616264859
            S   2   1.00
                  2.1035045710           1.3980803850
                  1.0106094922           0.63865786699
            S   1   1.00
                  0.23701751489          1.0000000
            S   1   1.00
                  0.85703405362E-01            1.0000000
            P   5   1.00
                394.47503628             0.26285693959E-02
                 93.137683104            0.20556257749E-01
                 29.519608742            0.92070262801E-01
                 10.781663791            0.25565889739
                  4.1626574778           0.42111707185
            P   1   1.00
                  1.6247972989           1.0000000
            P   1   1.00
                  0.54306660493          1.0000000
            P   1   1.00
                  0.20582073956          1.0000000
            P   1   1.00
                  0.70053487306E-01            1.0000000
            D   2   1.00
                  2.30300000             0.20000000
                  0.476000000            1.00000000
            D   1   1.00
                  0.160000000            1.0000000
            F   1   1.00
                  0.336000000            1.0000000
            S   1   1.00
              0.285678017873E-01   1.000
            P   1   1.00
              0.233511624353E-01   1.000
            ****
            -P     0
            S   7   1.00
              52426.9992330              0.55207164100E-03
               7863.2660552              0.42678595308E-02
               1789.5227333              0.21931529186E-01
                506.27300165             0.85667168373E-01
                164.60698546             0.24840686605
                 58.391918722            0.46336753971
                 21.643663201            0.35350558156
            S   3   1.00
                 99.013837620            0.21895679958E-01
                 30.550439817            0.95650470295E-01
                  5.4537087661          -0.29454270186
            S   2   1.00
                  2.6503362563           1.3294381200
                  1.2726688867           0.66109396473
            S   1   1.00
                  0.31645005203          1.0000000
            S   1   1.00
                  0.11417466938          1.0000000
            P   5   1.00
                472.27219248             0.25710623052E-02
                111.58882756             0.20250297999E-01
                 35.445936418            0.91580716787E-01
                 12.990776875            0.25749454014
                  5.0486221658           0.42862899758
            P   1   1.00
                  1.9934049566           1.0000000
            P   1   1.00
                  0.66527284430          1.0000000
            P   1   1.00
                  0.25516832128          1.0000000
            P   1   1.00
                  0.90357762251E-01            1.0000000
            D   2   1.00
                  3.12000000             0.20000000
                  0.648000000            1.00000000
            D   1   1.00
                  0.218000000            1.0000000
            F   1   1.00
                  0.452000000            1.0000000
            S   1   1.00
              0.380582231267E-01   1.000
            P   1   1.00
              0.301192540837E-01   1.000
            ****
            -S     0
            S   7   1.00
              60700.9281040              0.54695944225E-03
               9102.6106854              0.42297224557E-02
               2071.4166009              0.21747824159E-01
                586.02476821             0.85100053589E-01
                190.55395021             0.24799128459
                 67.630384260            0.46703640406
                 25.127306905            0.36434587550
            S   3   1.00
                112.57463010             0.21670040240E-01
                 34.795554217            0.93602301760E-01
                  6.5115556215          -0.26068001422
            S   2   1.00
                  3.2399032261           1.2842089435
                  1.5477160881           0.66036416584
            S   1   1.00
                  0.40541030112          1.0000000
            S   1   1.00
                  0.14550651059          1.0000000
            P   5   1.00
                564.36716027             0.24796796317E-02
                133.42624379             0.19677930250E-01
                 42.468271189            0.89980008258E-01
                 15.616527580            0.25705880575
                  6.1093988469           0.43515167292
            P   1   1.00
                  2.4404160198           1.0000000
            P   1   1.00
                  0.83882201296          1.0000000
            P   1   1.00
                  0.31288746900          1.0000000
            P   1   1.00
                  0.10770109004          1.0000000
            D   2   1.00
                  3.75600000             0.20000000
                  0.812000000            1.00000000
            D   1   1.00
                  0.273000000            1.0000000
            F   1   1.00
                  0.557000000            1.0000000
            S   1   1.00
              0.485021701967E-01   1.000
            P   1   1.00
              0.359003633467E-01   1.000
            ****
            -Cl     0
            S   7   1.00
              69507.9909450              0.54314897497E-03
              10426.1568800              0.41990463961E-02
               2373.2334061              0.21592141679E-01
                671.56420071             0.84598850094E-01
                218.41999790             0.24757249724
                 77.572249714            0.47016930228
                 28.888815277            0.37436370716
            S   3   1.00
                127.10527185             0.25182166603E-01
                 39.339582961            0.10786112456
                  7.6740679989          -0.27408821574
            S   2   1.00
                  3.8745627630           1.3213875014
                  1.8385832573           0.68636955368
            S   1   1.00
                  0.50229057542          1.0000000
            S   1   1.00
                  0.17962723420          1.0000000
            P   5   1.00
                666.50423284             0.23632663836E-02
                157.64241690             0.18879300374E-01
                 50.262520978            0.87206341273E-01
                 18.536078105            0.25285612970
                  7.2940532777           0.43507154820
            P   1   1.00
                  2.9433248995           1.0000000
            P   1   1.00
                  1.0404970818           1.0000000
            P   1   1.00
                  0.38456415080          1.0000000
            P   1   1.00
                  0.13069642732          1.0000000
            D   2   1.00
                  4.61000000             0.20000000
                  1.01100000             1.00000000
            D   1   1.00
                  0.339000000            1.0000000
            F   1   1.00
                  0.706000000            1.0000000
            S   1   1.00
              0.598757447333E-01   1.000
            P   1   1.00
              0.435654757733E-01   1.000
            ****
            -Ar     0
            S   7   1.00
              79111.4229980              0.51029325002E-03
              11864.7460090              0.39463036981E-02
               2700.1642973              0.20307073910E-01
                763.95943485             0.79691825214E-01
                248.45150561             0.23420623836
                 88.283581000            0.44833849481
                 32.948607069            0.36408167400
            S   3   1.00
                142.55358000             0.26387407001E-01
                 44.163688009            0.11226433999
                  8.9524995000          -0.26178922001
            S   2   1.00
                  4.5546920941           1.3002484998
                  2.1444079001           0.67197237009
            S   1   1.00
                  0.60708777004          1.0000000
            S   1   1.00
                  0.21651431999          1.0000000
            P   5   1.00
                776.77541998             0.22028005003E-02
                183.80107018             0.17694180008E-01
                 58.694003175            0.82431293717E-01
                 21.701591695            0.24207278863
                  8.5821489635           0.42263558251
            P   1   1.00
                  3.4922679161           1.0000000
            P   1   1.00
                  1.2637426998           1.0000000
            P   1   1.00
                  0.46607870005          1.0000000
            P   1   1.00
                  0.15766003000          1.0000000
            D   2   1.00
                  5.55100000             0.20000000
                  1.23500000             1.00000000
            D   1   1.00
                  0.412000000            1.0000000
            F   1   1.00
                  0.890000000            1.0000000
            S   1   1.00
              0.721714399967E-01   1.000
            P   1   1.00
              0.525533433333E-01   1.000
            ****
            -K     0
            S   8   1.00
             153976.1832500              0.23662636107E-03
              23082.4976720              0.18342929137E-02
               5253.2344745              0.95310527769E-02
               1486.9550133              0.38638406980E-01
                484.06333726             0.12480768502
                173.56653980             0.29278861009
                 67.116381464            0.40633425860
                 26.339502054            0.20077215860
            S   4   1.00
                172.87693567            -0.24200960936E-01
                 53.058649063           -0.11553095040
                  7.9212753964           0.57455545175
                  3.2108880472           0.57023185107
            S   2   1.00
                  4.5662070895          -0.22615763466
                  0.70209907282          0.75528392045
            S   1   1.00
                  0.28258942635          1.0000000
            S   1   1.00
                  0.35805824617E-01            1.0000000
            S   1   1.00
                  0.15819213245E-01            1.0000000
            P   6   1.00
                728.18449873             0.26150689792E-02
                172.13265061             0.20673630835E-01
                 54.829847075            0.93205603870E-01
                 20.166266494            0.25436518210
                  7.8610728806           0.39131132810
                  3.1105213132           0.22481345943
            P   3   1.00
                 11.757337492           -0.25777289217E-01
                  1.5139617411           0.57359428604
                  0.58328591795          1.0798320002
            P   1   1.00
                  0.21570478076          1.0000000
            P   1   1.00
                  0.0417370              1.0000000
            D   1   1.00
                  0.9300000              1.0000000
            D   1   1.00
                  0.1800000              1.0000000
            D   1   1.00
                  0.0540000              1.0000000
            S   1   1.00
              0.527307108167E-02   1.000
            P   1   1.00
              0.139123333333E-01   1.000
            ****
            -Ca     0
            S   8   1.00
             172517.3268500              0.23317502546E-03
              25861.5192750              0.18076521980E-02
               5885.6618668              0.93943844255E-02
               1665.9730031              0.38108409009E-01
                542.36718148             0.12331203853
                194.57803492             0.29004470954
                 75.303597636            0.40587151157
                 29.574062589            0.20398410743
            S   4   1.00
                191.20074660            -0.24419759759E-01
                 58.840299883           -0.11547027448
                  8.9642540845           0.56356636717
                  3.6856960541           0.56709682704
            S   2   1.00
                  5.2464289726          -0.22825334325
                  0.84862621528          0.72625219172
            S   1   1.00
                  0.36743300538          1.0000000
            S   1   1.00
                  0.66821582613E-01            1.0000000
            S   1   1.00
                  0.26759730445E-01            1.0000000
            P   6   1.00
                836.97262058             0.25258346092E-02
                197.93040142             0.20076506686E-01
                 63.135558054            0.91302987366E-01
                 23.282687170            0.25247029915
                  9.1176444932           0.39426326344
                  3.6336120139           0.23011559492
            P   3   1.00
                 13.494163120           -0.26495021951E-01
                  1.8139259790           0.55088108210
                  0.71981826006          1.0280616620
            P   1   1.00
                  0.27629576992          1.0000000
            P   1   1.00
                  0.0749790              1.0000000
            P   1   1.00
                  0.0269270              1.0000000
            D   2   1.00
                  5.4979093879           0.73770011433E-01
                  1.3177128032           0.26052853169
            D   1   1.00
                  0.32188682649          1.0000000
            D   1   1.00
                  0.70528614919E-01            1.0000000
            S   1   1.00
              0.891991014833E-02   1.000
            P   1   1.00
              0.897566666667E-02   1.000
            ****
            -Sc     0
            S   8   1.00
             191612.9187400              0.23076475942E-03
              28723.8503630              0.17890329946E-02
               6537.0116490              0.92990401140E-02
               1850.3097171              0.37739438011E-01
                602.38855156             0.12227148359
                216.17324766             0.28814821470
                 83.712517880            0.40517543099
                 32.908707189            0.20566019623
            S   4   1.00
                211.34393234            -0.24527991462E-01
                 65.128920139           -0.11570158142
                 10.034311535            0.55995283317
                  4.1596884597           0.56087765073
            S   2   1.00
                  6.0009041613          -0.22840494325
                  0.98255784150          0.71948970378
            S   1   1.00
                  0.42483192773          1.0000000
            S   1   1.00
                  0.77185462096E-01            1.0000000
            S   1   1.00
                  0.30147219702E-01            1.0000000
            P   6   1.00
                947.34122823             0.24737208744E-02
                224.09699732             0.19742967060E-01
                 71.560334882            0.90357147549E-01
                 26.444824490            0.25201602503
                 10.393798285            0.39675535929
                  4.1606304559           0.23208624517
            P   3   1.00
                 15.565737135           -0.27129423974E-01
                  2.1121544865           0.55109256629
                  0.84184709021          1.0090635806
            P   1   1.00
                  0.32297542652          1.0000000
            P   1   1.00
                  0.0897480              1.0000000
            D   4   1.00
                 30.989390993            0.11902837431E-01
                  8.6905465069           0.67655856850E-01
                  2.9520256337           0.21332539722
                  1.0761910745           0.38391075578
            D   1   1.00
                  0.38338915095          1.0000000
            D   1   1.00
                  0.12534686113          1.0000000
            D   1   1.00
                  0.0410000              1.0000000
            F   1   1.00
                  0.3450000              1.0000000
            S   1   1.00
              0.100490732340E-01   1.000
            P   1   1.00
              0.299160000000E-01   1.000
            ****
            -Ti     0
            S   8   1.00
             211575.6902500              0.23318151011E-03
              31714.9450580              0.18079690851E-02
               7217.5476543              0.93984311352E-02
               2042.9394247              0.38156853618E-01
                665.12896208             0.12374757197
                238.74942264             0.29208551143
                 92.508691001            0.41226800855
                 36.403919209            0.21090534061
            S   4   1.00
                232.72624607            -0.24920140738E-01
                 71.791209711           -0.11746490087
                 11.158534615            0.56503342318
                  4.6548135416           0.56211101812
            S   2   1.00
                  6.8034629174          -0.23011425503
                  1.1201076403           0.72103186735
            S   1   1.00
                  0.48080118839          1.0000000
            S   1   1.00
                  0.85157274977E-01            1.0000000
            S   1   1.00
                  0.32657477046E-01            1.0000000
            P   6   1.00
               1063.1474732              0.24690839320E-02
                251.56507061             0.19773345523E-01
                 80.408554854            0.90987976672E-01
                 29.768193269            0.25559900413
                 11.736830556            0.40489386764
                  4.7142375230           0.23693402558
            P   3   1.00
                 17.796803704           -0.27878639615E-01
                  2.4272698680           0.55672914668
                  0.96823445537          1.0055447350
            P   1   1.00
                  0.37056694165          1.0000000
            P   1   1.00
                  0.1015610              1.0000000
            D   4   1.00
                 37.713384723            0.11513835092E-01
                 10.692931184            0.67246343996E-01
                  3.6728446990           0.21484207775
                  1.3588590303           0.38890892779
            D   1   1.00
                  0.49213295253          1.0000000
            D   1   1.00
                  0.16330520653          1.0000000
            D   1   1.00
                  0.0540000              1.0000000
            F   1   1.00
                  0.5620000              1.0000000
            S   1   1.00
              0.108858256820E-01   1.000
            P   1   1.00
              0.338536666667E-01   1.000
            ****
            -V     0
            S   8   1.00
             232340.6505800              0.23072410092E-03
              34828.8411700              0.17888178962E-02
               7926.5448691              0.92992490131E-02
               2243.7733046              0.37761463347E-01
                730.59322944             0.12255909662
                262.32219631             0.28963508811
                101.70403805             0.41004702955
                 40.064784617            0.21113610858
            S   4   1.00
                255.24014968            -0.24458116338E-01
                 78.804646961           -0.11527205366
                 12.340598946            0.55174749453
                  5.1742019219           0.54504528489
            S   2   1.00
                  7.6513894469          -0.22967638286
                  1.2639759898           0.71683769077
            S   1   1.00
                  0.53861761721          1.0000000
            S   1   1.00
                  0.92719296124E-01            1.0000000
            S   1   1.00
                  0.34998055176E-01            1.0000000
            P   6   1.00
               1184.2369151              0.24449826729E-02
                280.23075192             0.19643454466E-01
                 89.643627137            0.90796949190E-01
                 33.242411253            0.25650768222
                 13.144514452            0.40815393750
                  5.2948534140           0.23860378268
            P   3   1.00
                 20.175586851           -0.28241489023E-01
                  2.7605865197           0.55574635619
                  1.1008900902           0.99319919270
            P   1   1.00
                  0.42013310739          1.0000000
            P   1   1.00
                  0.1112480              1.0000000
            D   4   1.00
                 43.861134864            0.11487174238E-01
                 12.516021891            0.68247153977E-01
                  4.3313854957           0.21837784195
                  1.6138855773           0.39245212296
            D   1   1.00
                  0.58749573961          1.0000000
            D   1   1.00
                  0.19515723011          1.0000000
            D   1   1.00
                  0.0650000              1.0000000
            F   1   1.00
                  0.8310000              1.0000000
            S   1   1.00
              0.116660183920E-01   1.000
            P   1   1.00
              0.370826666667E-01   1.000
            ****
            -Cr     0
            S   8   1.00
             254477.8070400              0.23386945693E-03
              38131.7970540              0.18142601800E-02
               8675.2930607              0.94363925721E-02
               2455.0099848              0.38343639367E-01
                799.16217787             0.12459194837
                286.90021489             0.29489696029
                111.25413232             0.41846149607
                 43.864152636            0.21633763420
            S   4   1.00
                279.32669173            -0.23450908111E-01
                 86.274732376           -0.11080370027
                 13.555756113            0.53028965842
                  5.6978112751           0.51603516947
            S   2   1.00
                  8.5636582615          -0.38109545675
                  1.3988296768           1.1991591436
            S   1   1.00
                  0.57288171116          1.0000000
            S   1   1.00
                  0.90096171317E-01            1.0000000
            S   1   1.00
                  0.34125885135E-01            1.0000000
            P   6   1.00
               1306.4398864              0.24277326185E-02
                309.25311441             0.19544041017E-01
                 98.996273963            0.90651794553E-01
                 36.756916451            0.25699279154
                 14.566657077            0.40935504891
                  5.8739937432           0.23729388849
            P   3   1.00
                 22.890999695           -0.28166026613E-01
                  3.0855001822           0.56034120148
                  1.2132329118           0.98119019650
            P   1   1.00
                  0.44931680699          1.0000000
            P   1   1.00
                  0.1206750              1.0000000
            D   4   1.00
                 43.720074476            0.13622964026E-01
                 12.391242652            0.78935180133E-01
                  4.2639442006           0.23833840000
                  1.5525221790           0.39526851122
            D   1   1.00
                  0.53761929485          1.0000000
            D   1   1.00
                  0.16493173074          1.0000000
            D   1   1.00
                  0.0510000              1.0000000
            F   1   1.00
                  1.1470000              1.0000000
            S   1   1.00
              0.113752950450E-01   1.000
            P   1   1.00
              0.402250000000E-01   1.000
            ****
            -Mn     0
            S   8   1.00
             277185.0015300              0.22838385133E-03
              41550.7698900              0.17707650375E-02
               9455.9700152              0.92077209994E-02
               2676.5206482              0.37415971825E-01
                871.46687530             0.12164861426
                312.98306420             0.28824392499
                121.44454051             0.41041600847
                 47.922598829            0.21372375145
            S   4   1.00
                303.66723163            -0.24589926140E-01
                 93.881403187           -0.11602608038
                 14.879421214            0.55112059677
                  6.2865200745           0.53707560756
            S   2   1.00
                  9.4858591337          -0.22889262695
                  1.5698706158           0.71196169587
            S   1   1.00
                  0.65903213608          1.0000000
            S   1   1.00
                  0.10686292371          1.0000000
            S   1   1.00
                  0.39267435433E-01            1.0000000
            P   6   1.00
               1444.7978182              0.23994136455E-02
                342.06551197             0.19369286864E-01
                109.58400891             0.90236108988E-01
                 40.747988173            0.25745467851
                 16.188626566            0.41272351958
                  6.5484505964           0.24087700007
            P   3   1.00
                 25.357086437           -0.28707174058E-01
                  3.4830168782           0.55208100712
                  1.3858800906           0.97226901379
            P   1   1.00
                  0.52555094893          1.0000000
            P   1   1.00
                  0.1276500              1.0000000
            D   4   1.00
                 56.563189119            0.11543245294532D-01
                 16.278734711            0.70299845987196D-01
                  5.6964273914           0.22450770821295
                  2.1411147942           0.39703065434226
            D   1   1.00
                  0.78291801938          1.0000000
            D   1   1.00
                  0.25952311214          1.0000000
            D   1   1.00
                  0.0860000              1.0000000
            F   1   1.00
                  1.3260000              1.0000000
            S   1   1.00
              0.130891451443E-01   1.000
            P   1   1.00
              0.425500000000E-01   1.000
            ****
            -Fe     0
            S   8   1.00
             300784.8463700              0.22806273096E-03
              45088.9705570              0.17681788761E-02
              10262.5163170              0.91927083490E-02
               2905.2897293              0.37355495807E-01
                946.11487137             0.12151108426
                339.87832894             0.28818881468
                131.94425588             0.41126612677
                 52.111494077            0.21518583573
            S   4   1.00
                329.48839267            -0.24745216477E-01
                101.92332739            -0.11683089050
                 16.240462745            0.55293621136
                  6.8840675801           0.53601640182
            S   2   1.00
                 10.470693782           -0.22912708577
                  1.7360039648           0.71159319984
            S   1   1.00
                  0.72577288979          1.0000000
            S   1   1.00
                  0.11595528203          1.0000000
            S   1   1.00
                  0.41968227746E-01            1.0000000
            P   6   1.00
               1585.3959970              0.23793960179E-02
                375.38006499             0.19253154755E-01
                120.31816501             0.90021836536E-01
                 44.788749031            0.25798172356
                 17.829278584            0.41492649744
                  7.2247153786           0.24207474784
            P   3   1.00
                 28.143219756           -0.29041755152E-01
                  3.8743241412           0.55312260343
                  1.5410752281           0.96771136842
            P   1   1.00
                  0.58285615250          1.0000000
            P   1   1.00
                  0.1349150              1.0000000
            D   4   1.00
                 61.996675034            0.11971972255E-01
                 17.873732552            0.73210135410E-01
                  6.2744782934           0.23103094314
                  2.3552337175           0.39910706494
            D   1   1.00
                  0.85432239901          1.0000000
            D   1   1.00
                  0.27869254413          1.0000000
            D   1   1.00
                  0.0910000              1.0000000
            F   1   1.00
                  1.5980000              1.0000000
            S   1   1.00
              0.139894092487E-01   1.000
            P   1   1.00
              0.449716666667E-01   1.000
            ****
            -Co     0
            S   8   1.00
             325817.0155300              0.22568462484E-03
              48839.6364530              0.17499397533E-02
              11114.9373070              0.91003134097E-02
               3146.1603642              0.36996256837E-01
               1024.4378465              0.12044269621
                368.02508816             0.28598731649
                142.91229205             0.40908312004
                 56.482649209            0.21500145739
            S   4   1.00
                356.40298318            -0.24767059678E-01
                110.31165215            -0.11702139134
                 17.659634834            0.55215522200
                  7.5059030479           0.53246877060
            S   2   1.00
                 11.501807176           -0.22942470077
                  1.9081994606           0.71180933514
            S   1   1.00
                  0.79396696891          1.0000000
            S   1   1.00
                  0.12444448829          1.0000000
            S   1   1.00
                  0.44444645379E-01            1.0000000
            P   6   1.00
               1731.1369144              0.23905767685E-02
                409.91750438             0.19382999967E-01
                131.45648578             0.90905448509E-01
                 48.987439714            0.26146681577
                 19.537078992            0.42157264570
                  7.9287281634           0.24571813557
            P   3   1.00
                 31.076017584           -0.29438069973E-01
                  4.2835180697           0.55615568168
                  1.7022921563           0.96772195064
            P   1   1.00
                  0.64202908602          1.0000000
            P   1   1.00
                  0.1413080              1.0000000
            D   4   1.00
                 68.140745239            0.11983845360E-01
                 19.685241019            0.73688540475E-01
                  6.9322128825           0.23085496779
                  2.6025125694           0.39281059225
            D   1   1.00
                  0.94016837302          1.0000000
            D   1   1.00
                  0.30381457794          1.0000000
            D   1   1.00
                  0.0980000              1.0000000
            F   1   1.00
                  1.9030000              1.0000000
            S   1   1.00
              0.148148817930E-01   1.000
            P   1   1.00
              0.471026666667E-01   1.000
            ****
            -Ni     0
            S   8   1.00
             351535.7293500              0.22529386884E-03
              52695.8092830              0.17468616223E-02
              11992.4682930              0.90849992136E-02
               3394.5776689              0.36940748447E-01
               1105.3594585              0.12032819950
                397.14677769             0.28596715057
                154.27542974             0.40983020196
                 61.018723780            0.21620642851
            S   4   1.00
                384.45559739            -0.24651279268E-01
                119.04879199            -0.11658505277
                 19.137012223            0.54864126676
                  8.1526718562           0.52640051122
            S   2   1.00
                 12.579408642           -0.22797884293
                  2.0870866081           0.70703738215
            S   1   1.00
                  0.86432568555          1.0000000
            S   1   1.00
                  0.13283169217          1.0000000
            S   1   1.00
                  0.46845327726E-01            1.0000000
            P   6   1.00
               1883.0907486              0.23748258443E-02
                445.95155320             0.19289457172E-01
                143.08430815             0.90718211507E-01
                 53.372920722            0.26181414117
                 21.321919357            0.42309149832
                  8.6643561994           0.24641686015
            P   3   1.00
                 34.144255211           -0.29677129163E-01
                  4.7122455921           0.55616824096
                  1.8709231845           0.96357766460
            P   1   1.00
                  0.70370016267          1.0000000
            P   1   1.00
                  0.1465880              1.0000000
            D   4   1.00
                 74.591603465            0.12077454672E-01
                 21.590632752            0.74637262154E-01
                  7.6246142580           0.23236775502
                  2.8632206762           0.39042651680
            D   1   1.00
                  1.0311063388           1.0000000
            D   1   1.00
                  0.33060760691          1.0000000
            D   1   1.00
                  0.1060000              1.0000000
            F   1   1.00
                  2.1740000              1.0000000
            S   1   1.00
              0.156151092420E-01   1.000
            P   1   1.00
              0.488626666667E-01   1.000
            ****
            -Cu     0
            S   8   1.00
             377518.7992300              0.22811766128E-03
              56589.9843110              0.17688035931E-02
              12878.7117060              0.91993460227E-02
               3645.3752143              0.37411016434E-01
               1187.0072945              0.12189873737
                426.46421902             0.28983900714
                165.70660164             0.41531872174
                 65.598942707            0.21905799287
            S   4   1.00
                414.41265811            -0.24682525053E-01
                128.32056039            -0.11716827406
                 20.622089750            0.55301315941
                  8.7821226045           0.52242718609
            S   2   1.00
                 13.741372006           -0.22736061821
                  2.2431246833           0.71761210873
            S   1   1.00
                  0.89370549079          1.0000000
            S   1   1.00
                  0.10836699534          1.0000000
            S   1   1.00
                  0.38806178058E-01            1.0000000
            P   6   1.00
               2034.7596692              0.23524822298E-02
                481.90468106             0.19134070751E-01
                154.67482963             0.90171105278E-01
                 57.740576969            0.26063284735
                 23.099052811            0.42093485770
                  9.3882478591           0.24344615121
            P   3   1.00
                 37.596171210           -0.28991094530E-01
                  5.1240690810           0.54919083831
                  2.0119996085           0.93793330488
            P   1   1.00
                  0.73860686002          1.0000000
            P   1   1.00
                  0.1550650              1.0000000
            D   4   1.00
                 74.129460637            0.14363216676E-01
                 21.359842587            0.86628177096E-01
                  7.4995240537           0.25631430541
                  2.7601394169           0.40374062368
            D   1   1.00
                  0.95362061236          1.0000000
            D   1   1.00
                  0.28420862520          1.0000000
            D   1   1.00
                  0.0850000              1.0000000
            F   1   1.00
                  2.2330000              1.0000000
            S   1   1.00
              0.129353926860E-01   1.000
            P   1   1.00
              0.516883333333E-01   1.000
            ****
            -Zn     0
            S   8   1.00
             405924.3102800              0.22442017483E-03
              60846.9557350              0.17402086626E-02
              13847.3430920              0.90513339565E-02
               3919.6158551              0.36817341445E-01
               1276.3594167              0.12004850256
                458.67254435             0.28576057621
                178.28725246             0.41087462062
                 70.612192837            0.21816962456
            S   4   1.00
                443.88077950            -0.24934274984E-01
                137.55875267            -0.11817955766
                 22.268083479            0.55367318468
                  9.5217310606           0.52628934936
            S   2   1.00
                 14.874114065           -0.22929955254
                  2.4647517612           0.71135484742
            S   1   1.00
                  1.0113272238           1.0000000
            S   1   1.00
                  0.14919852089          1.0000000
            S   1   1.00
                  0.51441872981E-01            1.0000000
            P   6   1.00
               2205.3508534              0.23356240448E-02
                522.35300699             0.19031022634E-01
                167.73055542             0.89955758675E-01
                 62.670045373            0.26113248631
                 25.109749456            0.42348448173
                 10.225142681            0.24618926885
            P   3   1.00
                 40.713442521           -0.30029667592E-01
                  5.6247090696           0.55575254864
                  2.2279949116           0.95581013442
            P   1   1.00
                  0.83354741691          1.0000000
            P   1   1.00
                  0.1624550              1.0000000
            P   1   1.00
                  0.0477690              1.0000000
            D   4   1.00
                 88.554315311            0.12728170015E-01
                 25.721525557            0.79394499843E-01
                  9.1278367624           0.24491506805
                  3.4312364064           0.40390526479
            D   1   1.00
                  1.2308920645           1.0000000
            D   1   1.00
                  0.39031845112          1.0000000
            D   1   1.00
                  0.1240000              1.0000000
            F   1   1.00
                  2.6140000              1.0000000
            S   1   1.00
              0.171472909937E-01   1.000
            P   1   1.00
              0.159230000000E-01   1.000
            ****
            -Ga     0
            S   8   1.00
             435548.6625400              0.23646329650E-03
              65289.5890310              0.18335271776E-02
              14858.7842560              0.95371863081E-02
               4205.9734729              0.38803412468E-01
               1369.6416431              0.12661604848
                492.30348905             0.30175310292
                191.41923233             0.43543934218
                 75.840558665            0.23282363780
            S   4   1.00
                474.30810613            -0.26743707958E-01
                147.10297560            -0.12654657542
                 23.982599435            0.58840346839
                 10.298230094            0.56324271589
            S   2   1.00
                 16.050381430           -0.24516439508
                  2.6988468784           0.74578049593
            S   1   1.00
                  1.1428588736           1.0000000
            S   1   1.00
                  0.20217652251          1.0000000
            S   1   1.00
                  0.71980152032E-01            1.0000000
            P   6   1.00
               2432.0171070              0.22434065928E-02
                576.12049582             0.18342265336E-01
                185.11584354             0.87279697167E-01
                 69.246572556            0.25684868351
                 27.818107777            0.42398378107
                 11.420229938            0.25701340043
            P   3   1.00
                 42.819661530           -0.19326519119E-01
                  6.3885901000           0.31571386917
                  2.6698993326           0.57617792822
            P   1   1.00
                  1.0781783834           1.0000000
            P   1   1.00
                  0.22796559371          1.0000000
            P   1   1.00
                  0.62836234833E-01            1.0000000
            D   5   1.00
                103.92331829             0.11464613652E-01
                 30.371094389            0.73625747383E-01
                 10.872078097            0.23505107382
                  4.1549137954           0.40318563513
                  1.5345659145           0.40824748152
            D   1   1.00
                  0.51114263830          1.0000000
            D   1   1.00
                  0.30622000             1.0000000
            D   1   1.00
                  0.11391309             1.0000000
            F   1   1.00
                  0.30996095             1.0000000
            S   1   1.00
              0.239933840107E-01   1.000
            P   1   1.00
              0.209454116110E-01   1.000
            ****
            -Ge     0
            S   8   1.00
             466115.0059200              0.22487264660E-03
              69875.4207620              0.17435426729E-02
              15903.2767160              0.90691482206E-02
               4501.8233453              0.36906174685E-01
               1466.0570924              0.12050167907
                527.07841728             0.28748641703
                205.00395074             0.41622321885
                 81.251596065            0.22397845695
            S   4   1.00
                505.74661282            -0.25184609291E-01
                156.96593744            -0.11898929721
                 25.761448176            0.54930135870
                 11.106654687            0.52939309129
            S   2   1.00
                 17.272059104           -0.22854595728
                  2.9438289048           0.68377930317
            S   1   1.00
                  1.2839164916           1.0000000
            S   1   1.00
                  0.25873337445          1.0000000
            S   1   1.00
                  0.93524913177E-01            1.0000000
            P   6   1.00
               2633.9346241              0.22143925310E-02
                624.00161628             0.18140899141E-01
                200.58528404             0.86632184922E-01
                 75.097081525            0.25649020592
                 30.214388474            0.42658611262
                 12.440087567            0.26200527313
            P   3   1.00
                 45.981316002           -0.20321767678E-01
                  6.9945654416           0.32013744527
                  2.9686001327           0.59051014555
            P   1   1.00
                  1.2320988495           1.0000000
            P   1   1.00
                  0.28981614974          1.0000000
            P   1   1.00
                  0.85564606447E-01            1.0000000
            D   5   1.00
                119.44887581             0.10586544521E-01
                 35.062915293            0.69601280945E-01
                 12.636924529            0.22807035287
                  4.8888672922           0.40301067220
                  1.8453195392           0.41304847015
            D   1   1.00
                  0.63571158892          1.0000000
            D   1   1.00
                  0.35492132             1.0000000
            D   1   1.00
                  0.13155709             1.0000000
            F   1   1.00
                  0.36210645             1.0000000
            S   1   1.00
              0.311749710590E-01   1.000
            P   1   1.00
              0.285215354823E-01   1.000
            ****
            -As     0
            S   8   1.00
             498032.4215800              0.22740196900E-03
              74656.8687430              0.17632816413E-02
              16990.9600040              0.91728040381E-02
               4809.6200321              0.37337829344E-01
               1566.2887055              0.12199536117
                563.21360499             0.29137475324
                219.11179978             0.42326351479
                 86.866061030            0.22921464278
            S   4   1.00
                538.19512479            -0.25254197297E-01
                167.14850224            -0.11915461115
                 27.605517159            0.54628495980
                 11.947858521            0.53001520976
            S   2   1.00
                 18.538023133           -0.23479188136
                  3.2018985739           0.69167053428
            S   1   1.00
                  1.4356522077           1.0000000
            S   1   1.00
                  0.31837805200          1.0000000
            S   1   1.00
                  0.11622632186          1.0000000
            P   6   1.00
               2678.9421546              0.23318955287E-02
                634.61765840             0.19042149977E-01
                203.93967606             0.90229744913E-01
                 76.323890369            0.26169037693
                 30.664124943            0.41857168155
                 12.505056732            0.23447830190
            P   4   1.00
                 49.256229549           -0.21235539870E-01
                  7.7274891466           0.30470206668
                  3.5410493476           0.52888373107
                  1.6985585501           0.37272250955
            P   1   1.00
                  0.76848071044          1.0000000
            P   1   1.00
                  0.30050823260          1.0000000
            P   1   1.00
                  0.98190639437E-01            1.0000000
            D   5   1.00
                135.33289305             0.99291144106E-02
                 39.860212744            0.66568843496E-01
                 14.446428359            0.22275768307
                  5.6432900356           0.40309224382
                  2.1668188623           0.41671667946
            D   1   1.00
                  0.76514970569          1.0000000
            D   1   1.00
                  0.42434653             1.0000000
            D   1   1.00
                  0.16331527             1.0000000
            F   1   1.00
                  0.43271941             1.0000000
            S   1   1.00
              0.387421072867E-01   1.000
            P   1   1.00
              0.327302131457E-01   1.000
            ****
            -Se     0
            S   8   1.00
             531071.6669600              0.24108973168E-03
              79603.0441170              0.18696431441E-02
              18115.8442400              0.97271616536E-02
               5127.8923194              0.39604793031E-01
               1669.9130839              0.12948855136
                600.57534527             0.30959437289
                233.70021247             0.45115769216
                 92.672443932            0.24579189033
            S   4   1.00
                571.57513675            -0.26895707881E-01
                177.63686375            -0.12670989353
                 29.517767052            0.57699001719
                 12.824399795            0.56369075408
            S   2   1.00
                 19.848235841           -0.25132415534
                  3.4744018486           0.72905416980
            S   1   1.00
                  1.5988910849           1.0000000
            S   1   1.00
                  0.38333469387          1.0000000
            S   1   1.00
                  0.14049742459          1.0000000
            P   6   1.00
               2815.3500566              0.25569026854E-02
                666.92558298             0.20874026901E-01
                214.34213188             0.98772096250E-01
                 80.246687942            0.28471821221
                 32.251081288            0.45003584934
                 13.106432562            0.24416091055
            P   4   1.00
                 53.366108516           -0.21558456273E-01
                  8.1827777195           0.32662310638
                  3.6239945672           0.57740499319
                  1.6341591401           0.34301320826
            P   1   1.00
                  0.58418320228          1.0000000
            P   1   1.00
                  0.23966269279          1.0000000
            P   1   1.00
                  0.88785134803E-01            1.0000000
            D   5   1.00
                151.82910279             0.93970276988E-02
                 44.839992523            0.64086503991E-01
                 16.328999510            0.21834238004
                  6.4305057612           0.40314789649
                  2.5048025169           0.41966491490
            D   1   1.00
                  0.90271148434          1.0000000
            D   1   1.00
                  0.47683613             1.0000000
            D   1   1.00
                  0.18535160             1.0000000
            F   1   1.00
                  0.48866905             1.0000000
            S   1   1.00
              0.468324748633E-01   1.000
            P   1   1.00
              0.295950449343E-01   1.000
            ****
            -Br     0
            S   8   1.00
             565073.2525600              0.23660314690E-03
              84701.7231790              0.18348332508E-02
              19276.2719000              0.95465849860E-02
               5456.4284576              0.38877142153E-01
               1776.9503500              0.12718314231
                639.19398276             0.30437662191
                248.78823961             0.44490940497
                 98.678305494            0.24381643058
            S   4   1.00
                606.07824568            -0.26527158709E-01
                188.45598484            -0.12484584809
                 31.497144506            0.56468683559
                 13.736008320            0.55555268564
            S   2   1.00
                 21.203212766           -0.24940920493
                  3.7616420178           0.71213119743
            S   1   1.00
                  1.7735933962           1.0000000
            S   1   1.00
                  0.45197413664          1.0000000
            S   1   1.00
                  0.16613377099          1.0000000
            P   6   1.00
               3019.6955723              0.24971049798E-02
                715.35481126             0.20419267596E-01
                229.98328751             0.96897148309E-01
                 86.167844615            0.28053901252
                 34.667870802            0.44606390473
                 14.113870307            0.24410073923
            P   4   1.00
                 57.085653082           -0.21855950710E-01
                  8.8193845840           0.32707075320
                  3.9340302872           0.57855229520
                  1.7998830384           0.33570987698
            P   1   1.00
                  0.66899410512          1.0000000
            P   1   1.00
                  0.27136238231          1.0000000
            P   1   1.00
                  0.10083790243          1.0000000
            D   5   1.00
                168.85370257             0.89663981988E-02
                 49.977949919            0.62062059316E-01
                 18.274913338            0.21474732384
                  7.2455694631           0.40335336746
                  2.8562315025           0.42208813080
            D   1   1.00
                  1.0459621144           1.0000000
            D   1   1.00
                  0.56865655             1.0000000
            D   1   1.00
                  0.22031490             1.0000000
            F   1   1.00
                  0.57083312             1.0000000
            S   1   1.00
              0.553779236633E-01   1.000
            P   1   1.00
              0.336126341433E-01   1.000
            ****
            -Kr     0
            S   8   1.00
             600250.9757500              0.23740610399E-03
              89976.6507810              0.18410240539E-02
              20476.8142250              0.95795580699E-02
               5796.1554078              0.39020650488E-01
               1887.5913196              0.12772645628
                679.11458519             0.30596521300
                264.38244511             0.44857474437
                104.88368574             0.24722957327
            S   4   1.00
                641.47370764            -0.26745279805E-01
                199.57524820            -0.12571122567
                 33.545462954            0.56483736390
                 14.683955144            0.55972765539
            S   2   1.00
                 22.603101860           -0.25298771800
                  4.0650682991           0.70992159965
            S   1   1.00
                  1.9611027060           1.0000000
            S   1   1.00
                  0.52465147979          1.0000000
            S   1   1.00
                  0.19332399511          1.0000000
            P   6   1.00
               3232.9589614              0.24885607974E-02
                765.96442694             0.20379007428E-01
                246.33940810             0.96977188584E-01
                 92.365283041            0.28199960954
                 37.199509551            0.45116254358
                 15.172166534            0.24917131496
            P   4   1.00
                 60.931321698           -0.22173603519E-01
                  9.4792600646           0.32838462778
                  4.2564686326           0.58124997120
                  1.9729313762           0.32863541783
            P   1   1.00
                  0.76337108716          1.0000000
            P   1   1.00
                  0.30943625526          1.0000000
            P   1   1.00
                  0.11569704458          1.0000000
            D   5   1.00
                186.41760904             0.86120284601E-02
                 55.274124345            0.60394406304E-01
                 20.283219120            0.21181331869
                  8.0884536976           0.40366293413
                  3.2214033853           0.42402860686
            D   1   1.00
                  1.1952170102           1.0000000
            D   1   1.00
                  0.6480000              1.0000000
            D   1   1.00
                  0.2510000              1.0000000
            F   1   1.00
                  0.6280000              1.0000000
            S   1   1.00
              0.644413317033E-01   1.000
            P   1   1.00
              0.385656815267E-01   1.000
            ****
            -Rb     0
            S   2   1.00
                  7.4744618040           0.26997866363
                  6.7296180594          -0.42629251814
            S   1   1.00
                  2.7816640004           1.0000000
            S   1   1.00
                  0.53452175148          1.0000000
            S   1   1.00
                  0.22368793034          1.0000000
            S   1   1.00
                  0.32410407052E-01            1.0000000
            S   1   1.00
                  0.14171047424E-01            1.0000000
            P   4   1.00
                  5.6720643194           0.48114224135E-01
                  3.3320183956          -0.18485131426
                  0.80150054910          0.42811864954
                  0.36302220227          0.58673165411
            P   1   1.00
                  0.15733924392          1.0000000
            P   1   1.00
                  0.40000000000E-01            1.0000000
            P   1   1.00
                  0.16000000000E-01            1.0000000
            D   1   1.00
                  0.25907866956          1.0000000
            D   1   1.00
                  0.42507438045E-01            1.0000000
            D   1   1.00
                  0.11909276840E-01            1.0000000
            S   1   1.00
              0.472368247467E-02   1.000
            P   1   1.00
              0.533333333333E-02   1.000
            ****
            -Sr     0
            S   2   1.00
                 10.000000000           -0.18530550262
                  8.5000000000           0.33970355376
            S   1   1.00
                  3.0057048856           1.0000000
            S   1   1.00
                  0.61161287650          1.0000000
            S   1   1.00
                  0.27393841217          1.0000000
            S   1   1.00
                  0.57435564563E-01            1.0000000
            S   1   1.00
                  0.23338198665E-01            1.0000000
            P   4   1.00
                  7.5883077869           0.33731690287E-01
                  3.6731307392          -0.20523185005
                  0.90496618455          0.49209972665
                  0.43310256408          0.62105296512
            P   1   1.00
                  0.20222168964          1.0000000
            P   1   1.00
                  0.72000000000E-01            1.0000000
            P   1   1.00
                  0.25000000000E-01            1.0000000
            D   3   1.00
                  3.6180810000          -0.75010000000E-02
                  0.99665600000          0.10809800000
                  0.39073500000          0.27854000000
            D   1   1.00
                  0.12277000000          1.0000000
            D   1   1.00
                  0.36655000000E-01            1.0000000
            S   1   1.00
              0.777939955500E-02   1.000
            P   1   1.00
              0.833333333333E-02   1.000
            ****
            -Y     0
            S   2   1.00
                 10.000000000           -0.17487686796
                  8.5000000000           0.34152345084
            S   1   1.00
                  3.3653905454           1.0000000
            S   1   1.00
                  0.68860679385          1.0000000
            S   1   1.00
                  0.31191502936          1.0000000
            S   1   1.00
                  0.70326042567E-01            1.0000000
            S   1   1.00
                  0.27733859327E-01            1.0000000
            P   4   1.00
                  8.0554093616           0.36410978939E-01
                  4.0163458751          -0.20872572547
                  1.0232915404           0.48956929335
                  0.49843561636          0.60611943833
            P   1   1.00
                  0.23307661842          1.0000000
            P   1   1.00
                  0.80000000000E-01            1.0000000
            P   1   1.00
                  0.27000000000E-01            1.0000000
            D   3   1.00
                  3.9030833060          -0.98209792625E-02
                  1.1363234302           0.19183629664
                  0.45617043877          0.40597788539
            D   1   1.00
                  0.17470950748          1.0000000
            D   1   1.00
                  0.61978796638E-01            1.0000000
            F   1   1.00
                  0.2651500              1.0000000
            S   1   1.00
              0.924461977567E-02   1.000
            P   1   1.00
              0.900000000000E-02   1.000
            ****
            -Zr     0
            S   2   1.00
                 11.000000000           -0.19075595257
                  9.5000000000           0.33895588754
            S   1   1.00
                  3.6383667759           1.0000000
            S   1   1.00
                  0.76822026698          1.0000000
            S   1   1.00
                  0.34036824036          1.0000000
            S   1   1.00
                  0.75261298085E-01            1.0000000
            S   1   1.00
                  0.30131404705E-01            1.0000000
            P   4   1.00
                  8.6066305543           0.40404260236E-01
[...]
 .00376830,0.00962815,0.01251208,-0.04338494,0.11478694,0.07375969,-0.1
 1321484,-0.25037963,0.00865802,-0.00807689,-0.01415121,0.00123438,-0.0
 0493029,-0.00772581,-0.07817152,0.11486189,0.26427096,-0.04210046,0.02
 926136,-0.00750526,-0.00195489,0.02217868,-0.00219799,0.00866170,-0.01
 311768,0.00224865,-0.00196333,0.01052385,-0.00541604,0.04512112,0.0292
 4818,-0.13239339,0.02724930,0.00251692,-0.01413263,0.00240041,0.011453
 94,-0.02441129,0.00562141,0.00604114,-0.02421670,0.01161999,-0.0493118
 9,0.19469166,-0.00772524,0.02695278,-0.03917226,-0.00218861,0.02082992
 ,-0.00145806,-0.00627784,0.01237038,-0.00196735,0.00292268,-0.01304007
 ,0.00886266,0.01249954,-0.04699346,0.03380815,0.00086904,-0.00111451,0
 .00033749,-0.00129743,0.00105157,0.00040601,-0.00033825,0.00003660,-0.
 00036509,-0.00080709,-0.00001214,-0.00059547,0.00024526,0.00020839,-0.
 00027484,0.02984327,0.00011340,-0.00083021,0.00036988,-0.00024066,-0.0
 0069091,-0.00027108,-0.00011190,0.00010023,-0.00010593,-0.00001030,0.0
 0005884,-0.00004156,0.00001819,0.00092510,-0.00021541,0.04889255,0.430
 01005,-0.00058933,-0.00055056,0.00068951,0.00011769,0.00007632,-0.0016
 1693,-0.00061537,-0.00003918,-0.00051143,0.00017115,0.00008298,0.00005
 944,-0.00051833,0.00004959,0.00027472,0.06511004,0.01738017,0.69262390
 ,-0.00030945,0.00020056,-0.00066699,-0.00107321,-0.00168568,0.00014745
 ,0.00034842,0.00000030,0.00035974,0.00026342,0.00004388,0.00012683,0.0
 0002318,0.00023914,0.00021194,-0.00935013,-0.00752959,0.00221411,0.015
 99463,-0.00026734,0.00094318,-0.00061765,-0.00118555,-0.00044878,0.000
 09004,0.00025800,-0.00014603,0.00022081,0.00007630,-0.00005123,0.00001
 564,-0.00026004,-0.00069632,0.00010869,-0.00133474,-0.21684753,0.23529
 055,0.00201421,0.21020000,0.00035747,-0.00060928,-0.00001365,0.0002798
 4,0.00020984,0.00146081,0.00013447,0.00006355,0.00000513,-0.00043644,-
 0.00013008,-0.00027326,0.00081107,0.00060522,-0.00052429,-0.00493499,0
 .18415709,-0.31225236,0.00441201,-0.20593548,0.33250058,-0.00027425,-0
 .00029762,0.00021399,0.00029682,-0.00020323,-0.00050494,-0.00017309,-0
 .00002127,-0.00016991,0.00005357,0.00000539,0.00003105,-0.00005733,0.0
 0021894,0.00011509,-0.01513029,-0.04581808,-0.06976623,-0.00033779,-0.
 00100819,0.00048114,0.01499740,0.00000805,0.00015684,0.00009344,0.0000
 4075,-0.00018680,-0.00015259,-0.00003355,-0.00001919,-0.00003176,0.000
 02233,-0.00003217,0.00003601,-0.00003966,-0.00002667,-0.00005577,-0.04
 993867,-0.21101074,-0.25411212,0.00403025,0.01495108,0.02274444,0.0464
 4386,0.19783314,0.00010566,0.00000721,0.00008279,-0.00047899,-0.000161
 07,-0.00031297,0.00007118,0.00001963,0.00004497,0.00000875,-0.00000499
 ,0.00000900,0.00010028,0.00002851,0.00002532,-0.06211369,-0.20271398,-
 0.35825601,-0.00610482,-0.02792731,-0.02488306,0.06806502,0.23042357,0
 .38469255,-0.00001649,0.00017460,0.00000538,0.00014494,0.00010222,-0.0
 0014514,-0.00007945,-0.00001237,-0.00000583,0.00012322,0.00008552,0.00
 004094,-0.00069377,-0.00027336,0.00016851,-0.00055653,-0.00086418,0.00
 182163,0.00107980,0.00071524,-0.00223951,-0.00003101,-0.00000925,-0.00
 046252,0.68647291,0.00008655,-0.00036293,0.00007437,0.00006641,-0.0000
 2940,-0.00006864,-0.00004390,0.00007478,0.00000436,0.00008640,0.000050
 72,0.00004410,-0.00005656,0.00027347,-0.00004763,-0.00083234,0.0014632
 1,0.00059259,0.00027698,-0.00100223,0.00013235,-0.00021226,-0.00022067
 ,0.00005483,0.00150956,0.20266187,-0.00006889,0.00004238,-0.00004480,-
 0.00007604,-0.00004087,-0.00010410,-0.00001020,0.00000352,0.00001861,0
 .00005578,0.00003940,0.00001703,-0.00006980,-0.00006791,0.00008593,0.0
 0140587,0.00041672,0.00033828,-0.00142161,-0.00013204,-0.00083551,-0.0
 0058062,-0.00014551,0.00036497,-0.08911361,-0.21897962,0.27585533,0.00
 000601,0.00000749,-0.00000584,-0.00002561,-0.00001256,0.00002235,0.000
 01643,-0.00000351,-0.00000183,-0.00002568,-0.00001997,-0.00000746,0.00
 003928,0.00002114,-0.00001012,0.00024339,0.00009503,-0.00024520,-0.000
 14994,-0.00004673,0.00009721,-0.00006736,-0.00003176,0.00011553,-0.269
 87554,-0.12135019,0.18421151,0.29374060,-0.00000639,0.00003251,-0.0000
 0154,-0.00000195,-0.00000702,0.00002039,0.00001009,-0.00000985,-0.0000
 0083,-0.00001534,-0.00001633,-0.00000322,0.00005742,-0.00001247,-0.000
 01757,0.00000810,0.00006041,-0.00008587,-0.00007608,-0.00012362,0.0001
 9775,-0.00001809,0.00003628,0.00002411,-0.15447804,-0.11154240,0.15047
 348,0.14325712,0.10577340,-0.00000103,0.00003497,-0.00000036,0.0000039
 3,0.00000752,0.00000149,0.00000238,-0.00000568,-0.00000107,-0.00000031
 ,-0.00000613,0.00000294,-0.00004800,-0.00003033,-0.00000082,0.00020733
 ,-0.00000350,-0.00009445,-0.00013176,0.00008475,-0.00012609,-0.0000001
 0,0.00004363,0.00005124,0.22502608,0.14713137,-0.20544814,-0.21249240,
 -0.14285977,0.19987781,0.00007004,-0.00042573,0.00004806,-0.00010179,-
 0.00013071,0.00022020,0.00007958,0.00005269,0.00000858,-0.00014251,-0.
 00010099,-0.00004384,0.00096730,0.00050279,-0.00029490,-0.00115354,0.0
 0112576,-0.00213494,0.00007798,-0.00155420,0.00439484,0.00040319,0.000
 18499,0.00010844,-0.39802137,0.12371097,-0.09656618,-0.02245554,0.0116
 3586,-0.01090339,0.41910686,-0.00000951,0.00014946,-0.00004732,-0.0000
 4440,-0.00001038,0.00006030,0.00003784,-0.00003834,-0.00000240,-0.0000
 5554,-0.00004427,-0.00002575,0.00019393,-0.00006233,-0.00002577,0.0003
 9657,-0.00050040,-0.00064121,-0.00068642,0.00081688,0.00076453,0.00010
 884,0.00020409,-0.00005112,0.15663185,-0.08208473,0.06497847,-0.021342
 68,0.00567084,-0.00424817,-0.13646892,0.08317972,0.00005874,-0.0000499
 4,0.00002241,0.00007385,0.00004823,0.00010345,0.00000797,-0.00000363,-
 0.00001827,-0.00006278,-0.00004243,-0.00002483,0.00008474,0.00006145,-
 0.00006978,-0.00133944,-0.00082712,0.00010558,0.00254922,0.00074372,0.
 00009450,0.00032927,0.00014656,-0.00051078,-0.13601748,0.07050023,-0.0
 7100265,0.02885074,-0.00909363,0.00611499,0.10734299,-0.06112407,0.069
 12568,0.00008942,-0.00079840,-0.00006798,0.00032782,-0.00004360,-0.000
 22940,-0.00018240,0.00018210,0.00008660,0.00046696,0.00019119,0.000225
 34,-0.00030569,0.00053512,-0.00005954,-0.00113881,0.00577021,0.0070864
 1,0.00013183,-0.00181646,-0.00017760,-0.00219994,0.00109670,-0.0006052
 8,0.00281818,-0.00645069,0.00206795,0.00070911,-0.00012737,-0.00012858
 ,-0.00373813,-0.00137126,0.00036905,0.33410118,0.00007220,-0.00036405,
 0.00001884,-0.00017165,-0.00028213,-0.00012781,0.00004438,0.00006635,0
 .00004789,0.00010913,0.00000680,0.00010906,0.00018221,0.00039801,-0.00
 010149,0.00655503,-0.00248483,-0.00639106,-0.00259724,0.00166356,0.000
 49376,0.00097256,-0.00005942,0.00057069,-0.00683696,-0.00890499,0.0055
 8576,0.00160683,-0.00254335,-0.00051092,-0.00138414,0.00132896,-0.0005
 7963,0.14317861,0.41217844,-0.00024472,-0.00030706,-0.00032607,-0.0002
 6933,-0.00013369,-0.00045171,-0.00010797,0.00013230,0.00015675,0.00058
 766,0.00013949,0.00009205,-0.00017316,0.00005022,0.00025322,0.00728250
 ,-0.00683017,-0.00095259,-0.00040174,0.00081450,-0.00406084,0.00026271
 ,0.00011284,0.00089748,0.00169163,0.00537732,0.00217965,-0.00036350,-0
 .00013335,0.00037549,0.00023030,-0.00130053,-0.00073306,-0.26004557,0.
 05163029,0.40011245,-0.00027294,0.00018875,-0.00035340,-0.00048863,-0.
 00001678,-0.00015154,0.00008760,-0.00001869,0.00009801,0.00009481,-0.0
 0003732,-0.00001654,0.00015461,-0.00023036,0.00020068,-0.00431219,-0.0
 0120854,-0.00145071,-0.00018493,0.00196817,-0.00223038,0.00218344,-0.0
 0187086,0.00114644,-0.00001204,0.00117352,-0.00048928,-0.00015981,0.00
 014598,-0.00013832,0.00116208,-0.00026234,-0.00023546,-0.14152292,0.04
 701911,0.17874918,0.15353481,0.00001041,0.00011055,0.00000393,0.000332
 03,0.00035310,0.00024771,-0.00007304,-0.00002249,-0.00005818,-0.000112
 58,-0.00000673,-0.00011333,-0.00006889,-0.00021407,0.00000541,-0.00400
 990,-0.00028784,0.00211732,0.00353273,-0.00334835,0.00171435,-0.000475
 58,-0.00007683,-0.00122491,0.00121795,-0.00214543,-0.00097593,-0.00012
 445,0.00016650,-0.00014705,-0.00072816,-0.00026489,0.00083882,0.074840
 97,-0.09141256,-0.14452445,-0.05446288,0.08392615,0.00008457,0.0000814
 2,0.00007782,0.00007259,0.00020330,0.00039789,0.00005062,-0.00003786,-
 0.00003680,-0.00023776,-0.00004806,-0.00016297,0.00013203,-0.00008211,
 -0.00012390,-0.00126364,0.00193055,-0.00746375,-0.00194599,0.00174030,
 0.00450008,0.00117492,-0.00131677,-0.00106162,-0.00070628,-0.00156397,
 0.00011692,0.00014116,-0.00016452,0.00006004,-0.00019156,0.00078311,0.
 00005292,0.19550404,-0.10894486,-0.31737971,-0.19921118,0.11463638,0.3
 3710696,-0.00003718,0.00016149,-0.00006492,-0.00009709,-0.00004849,0.0
 0005121,0.00005494,-0.00003589,0.00000553,-0.00007851,-0.00004792,-0.0
 0002080,0.00013702,-0.00006507,0.00001151,0.00133211,-0.00054497,-0.00
 127137,-0.00116984,0.00109539,0.00044937,0.00025568,0.00015289,0.00014
 307,-0.00854878,0.00027986,0.00040258,-0.00037034,-0.00179078,0.000204
 39,0.00327371,0.00427176,-0.00095032,-0.17438104,-0.19015970,0.0818029
 7,-0.01366573,-0.01973502,0.00661668,0.19726904,-0.00011473,0.00036310
 ,-0.00006787,-0.00007865,0.00008247,0.00003380,0.00002188,-0.00006805,
 -0.00000656,-0.00007403,-0.00001808,-0.00005629,-0.00010458,-0.0003387
 1,0.00011361,0.00018023,-0.00250159,-0.00015494,0.00110726,0.00059544,
 -0.00108467,0.00040430,-0.00016219,-0.00018253,0.00115979,-0.00215368,
 -0.00139185,-0.00245251,0.00248479,0.00021045,0.00413412,-0.00117650,0
 .00036884,-0.21916554,-0.30427000,0.08970026,0.00877373,0.01241593,-0.
 00526034,0.21016638,0.29508995,0.00007919,-0.00014204,0.00002259,0.000
 06784,0.00000728,0.00005778,-0.00000170,0.00001856,-0.00000561,-0.0000
 0879,-0.00001335,0.00001414,0.00006156,0.00015439,-0.00008472,-0.00189
 866,0.00022609,0.00007245,0.00068431,-0.00075560,0.00094656,0.00037781
 ,-0.00024088,-0.00015628,0.00055779,-0.00405037,-0.00357915,0.00040781
 ,0.00107030,-0.00069330,-0.00152303,0.00186566,0.00046090,0.06397327,0
 .05556077,-0.06714295,0.02498262,0.03000764,-0.00979394,-0.08646980,-0
 .08045588,0.07755846,-0.00124630,-0.00144761,-0.00059457,-0.00000801,-
 0.00005545,-0.00026695,-0.00030062,0.00045681,0.00062026,-0.00106347,0
 .00070601,0.00123704,0.00004148,0.00073682,-0.00001710,0.00213661,-0.0
 0113186,-0.00021085,-0.00097940,0.00045373,-0.00076012,-0.00014196,0.0
 0002259,0.00009180,0.00011938,-0.00163909,0.00042094,0.00012363,-0.000
 06273,0.00004437,-0.00112510,0.00052650,-0.00005640,-0.01862383,-0.003
 83586,-0.02495950,-0.00455062,0.00074357,0.00103094,0.00118987,0.00263
 582,-0.00232935,0.22620505,0.00025196,-0.00087382,-0.00009053,-0.00018
 688,-0.00022982,0.00001399,0.00006574,0.00011567,-0.00001009,0.0004221
 8,-0.00009106,0.00009092,0.00040457,0.00093400,-0.00019562,-0.00045219
 ,0.00124720,-0.00131897,0.00027103,-0.00095002,0.00288134,0.00003447,0
 .00006606,0.00011732,-0.00148947,0.00083612,-0.00028341,0.00014323,0.0
 0004781,-0.00012472,0.00258545,0.00010549,0.00023751,0.00126692,0.0076
 1124,0.00102439,0.00116627,-0.00076605,0.00007421,0.00076634,-0.001296
 53,0.00189150,-0.03888650,0.03403635,0.00085888,0.00093358,0.00105957,
 -0.00051961,0.00012414,0.00001842,0.00011604,-0.00024643,-0.00032600,0
 .00085367,-0.00045411,-0.00171121,0.00024264,-0.00072782,0.00007730,0.
 00114624,-0.00082808,-0.00007965,-0.00039441,0.00059245,-0.00044295,-0
 .00003109,0.00003404,0.00009343,-0.00029354,-0.00117595,0.00085256,0.0
 0007140,-0.00022828,-0.00012595,-0.00039909,0.00014242,-0.00036893,-0.
 02163569,-0.00396948,-0.01817389,-0.00229724,0.00096707,0.00133209,0.0
 0066082,0.00239711,-0.00320265,0.18919072,-0.02974988,0.17887558,0.000
 29681,0.00162557,0.00070285,0.00003875,0.00020959,0.00076785,0.0003114
 9,-0.00045678,-0.00037286,-0.00101116,-0.00047999,-0.00087428,0.000305
 43,-0.00095214,-0.00004907,-0.00343305,0.00180245,-0.00011699,0.001488
 06,-0.00037211,0.00169945,0.00016899,-0.00007512,-0.00010125,-0.000194
 74,0.00296301,-0.00073069,-0.00017710,0.00012911,-0.00001182,0.0020693
 8,-0.00060303,0.00036243,0.00173416,0.00481926,0.01523668,0.00836910,-
 0.00093948,-0.00108016,-0.00391203,-0.00478486,0.00094122,-0.20019571,
 0.03718601,-0.16732083,0.19516896,0.00001408,0.00021732,0.00024300,0.0
 0017629,0.00012228,-0.00014549,-0.00010237,-0.00001232,-0.00008139,0.0
 0009456,-0.00006028,-0.00014819,-0.00021513,-0.00022970,0.00006676,-0.
 00002745,-0.00012919,0.00101126,0.00022571,-0.00068346,-0.00125447,-0.
 00003464,0.00001070,-0.00009760,0.00094609,0.00043414,0.00045145,-0.00
 018393,-0.00004275,0.00009250,-0.00054358,-0.00105690,-0.00020434,0.00
 374474,-0.01117859,0.00627133,-0.00161591,0.00042456,-0.00227506,-0.00
 401354,0.00005051,-0.00495348,0.04250122,-0.02689625,0.03725872,-0.044
 53822,0.04103886,-0.00007818,-0.00014312,-0.00016776,0.00036712,-0.000
 07479,0.00018733,0.00004231,0.00000218,-0.00000923,-0.00079494,0.00020
 329,0.00074098,-0.00001351,0.00024379,-0.00022898,-0.00237980,0.002150
 21,0.00064711,0.00114920,-0.00137405,0.00168817,0.00006541,0.00013085,
 -0.00024762,0.00001966,0.00218108,-0.00170838,-0.00007056,0.00047007,0
 .00014712,0.00139221,-0.00010907,0.00074026,0.01374405,0.00668652,0.00
 364933,0.00059460,-0.00236361,-0.00620166,-0.00120218,-0.00445414,0.00
 617878,-0.16312667,0.03180885,-0.15493363,0.15159044,-0.03905740,0.149
 51867,-0.00042088,0.00001767,0.00064312,0.00008015,-0.00002323,0.00037
 078,0.00018040,-0.00015936,-0.00012698,-0.00049716,-0.00060856,-0.0001
 5366,0.00029801,-0.00020845,-0.00050824,-0.00074051,0.00028660,0.00009
 087,0.00075506,-0.00066321,0.00003085,-0.00002953,0.00003232,-0.000000
 87,0.00028258,0.00177587,0.00101977,-0.00022763,-0.00005831,0.00003442
 ,0.00035747,-0.00427142,-0.00224369,0.00048527,-0.00149117,0.00121545,
 0.00031056,0.00016514,-0.00095931,-0.00105346,0.00040721,-0.00090184,-
 0.00625286,-0.00329690,-0.00156084,0.00091487,0.00508202,-0.00004521,0
 .05476847,-0.00025579,0.00247424,0.00021950,0.00009158,0.00034140,0.00
 038461,0.00021609,-0.00051285,-0.00022398,-0.00094624,-0.00030623,-0.0
 0041369,-0.00089858,-0.00181896,0.00053500,0.00074107,-0.00302701,0.00
 221578,-0.00063839,0.00402158,-0.00508603,-0.00003484,-0.00014265,-0.0
 0019812,0.00248463,-0.00213389,0.00031337,-0.00017602,-0.00000918,0.00
 020462,-0.00564767,0.00062026,-0.00081246,-0.00419709,-0.00172560,-0.0
 0471010,-0.00062560,0.00123597,0.00142746,0.00115641,0.00207466,-0.000
 14305,-0.00292676,0.00925737,-0.00191724,0.00846171,-0.00404036,0.0078
 2410,0.02170565,0.36136247,0.00040250,0.00019401,0.00036903,0.00047772
 ,0.00028561,-0.00061075,-0.00017736,-0.00009113,-0.00026345,-0.0000797
 6,-0.00027382,0.00028395,-0.00026416,0.00002426,-0.00010543,0.00041036
 ,0.00095619,0.00149348,-0.00080668,-0.00336884,-0.00385573,-0.00002959
 ,-0.00025121,0.00010934,0.00078289,-0.00021515,-0.00063713,0.00005799,
 0.00018813,0.00023835,-0.00129991,-0.00014193,0.00073912,0.00010375,-0
 .00142746,-0.00101490,-0.00090126,0.00062278,-0.00036910,-0.00090600,0
 .00031286,-0.00011602,-0.00211185,0.00252755,-0.00572826,0.00182444,0.
 00364040,0.00332007,0.03049931,0.17177854,0.11006118,-0.00045935,0.002
 08009,-0.00014588,-0.00016943,0.00019317,-0.00063041,-0.00010138,-0.00
 024781,-0.00011773,0.00024334,0.00008161,0.00009295,-0.00696549,-0.002
 14530,0.00153651,0.00428822,0.00008476,-0.00145040,-0.00692357,0.00085
 865,0.00068144,-0.00005173,0.00003541,-0.00007347,-0.01321246,-0.00065
 465,-0.00097072,-0.00093559,0.00123799,-0.00143911,-0.00029566,0.00169
 081,0.00141080,0.00099220,0.00235913,-0.00087501,-0.00071071,-0.000328
 32,0.00101597,0.00001465,-0.00241787,0.00115721,0.00516724,0.00249226,
 0.00144685,-0.00190380,-0.00218211,-0.00077130,-0.05221306,-0.01655360
 ,-0.02697841,0.46131004,0.00064771,-0.00174058,0.00028969,0.00012991,0
 .00013106,-0.00075192,-0.00055333,0.00061711,-0.00012535,0.00063263,0.
 00042768,0.00028567,-0.00074401,0.00185977,0.00016890,-0.00014980,0.00
 426008,0.00540513,0.00049282,-0.00863527,-0.00170333,0.00004961,-0.001
 53521,0.00128811,0.00165575,0.00505223,-0.00001476,0.00090601,-0.00027
 617,0.00027331,-0.00063818,-0.00795710,-0.00037880,0.00325816,-0.00015
 682,0.00273320,-0.00018044,0.00004217,-0.00119077,-0.00164727,-0.00092
 239,-0.00009792,0.00231192,-0.02125149,-0.00241647,-0.00419483,0.00169
 909,-0.00404719,-0.05542291,-0.35141382,-0.18401159,-0.16809496,0.5301
 5801,-0.00032445,0.00013357,-0.00084775,-0.00064071,-0.00089494,0.0000
 9927,0.00026446,-0.00002148,0.00036886,0.00038891,0.00031436,-0.000026
 95,0.00055017,0.00021934,0.00127403,-0.00271008,0.00495826,-0.01397868
 ,0.00409059,-0.00170818,0.00538764,0.00013025,0.00227347,-0.00049600,-
 0.00127902,0.00011561,0.00306044,-0.00071353,0.00011398,-0.00041860,-0
 .00059600,-0.00097165,-0.00390367,-0.00027548,0.00113775,0.00278016,0.
 00194213,-0.00178188,-0.00138237,0.00045557,0.00015162,-0.00053622,0.0
 0218550,-0.00767291,0.00335752,-0.00228357,-0.00102472,-0.00342389,-0.
 04533974,-0.16147746,-0.10836665,0.11464528,0.15107056,0.14909683,0.00
 124358,-0.00209229,0.00027975,0.00021368,0.00044059,-0.00000594,-0.000
 40491,0.00072985,-0.00012996,0.00006882,0.00036214,-0.00010664,-0.0019
 5342,0.00146406,-0.00026096,-0.00070009,-0.00072886,0.00175782,0.00031
 587,0.00106887,-0.00305013,0.00013517,-0.00007126,-0.00001527,0.000201
 17,-0.00068945,0.00051323,-0.00040833,0.00015341,-0.00022807,-0.000533
 94,0.00125740,-0.00053421,0.00023664,-0.00044173,0.00038142,-0.0000164
 9,0.00021548,-0.00022765,-0.00021300,0.00020206,-0.00015745,-0.0004953
 5,-0.00274452,-0.00013494,-0.00003842,0.00067217,-0.00048265,0.0030022
 6,-0.00195655,-0.00100398,-0.38807344,0.22154121,-0.07049029,0.3874201
 8,-0.00120558,-0.00056953,0.00026792,-0.00008186,-0.00026086,0.0003931
 8,0.00034135,-0.00035768,0.00006925,-0.00018211,-0.00036649,-0.0000392
 2,0.00199681,-0.00052878,-0.00045868,-0.00019837,0.00018512,-0.0009278
 0,0.00077853,-0.00025888,0.00183912,-0.00011417,0.00021433,0.00002765,
 -0.00271957,-0.00026620,-0.00027264,-0.00029253,0.00031060,-0.00014682
 ,0.00368964,0.00112014,0.00017069,-0.00009430,0.00012897,-0.00004680,0
 .00009417,-0.00012969,0.00000757,0.00003814,-0.00024912,0.00005036,-0.
 00110915,-0.00190227,-0.00073578,0.00019984,0.00033234,-0.00007756,0.0
 3673102,-0.01625742,0.00925078,0.18151072,-0.15035834,0.01506471,-0.21
 938260,0.16921375,0.00036613,0.00057448,0.00012802,0.00011748,0.000468
 23,-0.00023129,-0.00012655,0.00000220,-0.00014894,-0.00009039,-0.00023
 157,0.00010272,-0.00052444,-0.00042625,-0.00092575,0.00156987,-0.00070
 832,-0.00109862,-0.00407140,0.00211771,0.00068426,-0.00016417,0.000267
 75,-0.00044673,0.00014842,-0.00010689,0.00047014,-0.00006527,0.0000303
 6,0.00003932,0.00020724,0.00009449,-0.00092785,0.00006465,0.00021137,-
 0.00026084,-0.00023837,0.00002791,0.00033110,0.00008169,-0.00017346,-0
 .00000083,-0.00038820,-0.00122145,-0.00057335,-0.00018384,0.00020673,0
 .00010334,0.01793581,-0.00992086,0.00445288,-0.08853459,0.03322352,-0.
 03204396,0.07389591,-0.02443594,0.03034639\\-0.00001257,0.00003681,-0.
 00001977,0.00000070,-0.00002690,0.00001157,0.00000168,-0.00000623,0.00
 000032,0.00001414,-0.00000193,0.00000619,0.00000346,-0.00001508,0.0000
 0372,-0.00002863,0.00000818,0.00002416,0.00000819,-0.00000947,-0.00002
 966,0.00001630,0.00000132,0.00000176,0.00000721,0.00000309,0.00001708,
 -0.00000051,0.00000403,0.00000205,0.00000434,0.00000831,-0.00000608,0.
 00003172,-0.00001102,0.00003205,-0.00001119,0.00000528,-0.00001311,-0.
 00002642,0.00000576,-0.00002520,0.00000818,-0.00000296,0.00000649,-0.0
 0001199,-0.00000570,-0.00001998,-0.00000831,0.00001750,-0.00000364,0.0
 0000755,-0.00001146,0.00000283,-0.00000385,0.00000046,0.00000921\\\@
 The archive entry for this job was punched.


 BRING ME INTO THE COMPANY OF THOSE WHO SEEK TRUTH,
 AND DELIVER ME FROM THOSE WHO HAVE FOUND IT.
 Job cpu time:       0 days  2 hours 44 minutes 13.3 seconds.
 Elapsed time:       0 days  0 hours  5 minutes 16.9 seconds.
 File lengths (MBytes):  RWF=    340 Int=      0 D2E=      0 Chk=     13 Scr=      1
 Normal termination of Gaussian 16 at Sat Aug  3 03:06:02 2024.
